# Probe 0 (-17.029 0 0)
# Probe 1 (-240 0 0)
#       Probe             0             1
#        Time
            0    1.2825e+06         6e+06
         0.01   2.58833e+06   5.29973e+06
         0.02   2.37013e+06   5.33705e+06
         0.03   2.47993e+06   5.35788e+06
         0.04   2.50654e+06   5.36671e+06
         0.05    2.5303e+06   5.36505e+06
         0.06   2.54603e+06   5.35999e+06
         0.07    2.5455e+06   5.36915e+06
         0.08   2.54709e+06   5.38166e+06
         0.09   2.53701e+06   5.39404e+06
          0.1   2.53402e+06   5.40522e+06
         0.11   2.52853e+06   5.41495e+06
         0.12   2.52028e+06   5.42328e+06
         0.13   2.51324e+06   5.43034e+06
         0.14   2.50438e+06   5.43615e+06
         0.15   2.49809e+06    5.4401e+06
         0.16   2.49139e+06   5.44179e+06
         0.17   2.48317e+06   5.44066e+06
         0.18    2.4756e+06   5.43536e+06
         0.19   2.46836e+06   5.42378e+06
          0.2   2.46164e+06   5.42436e+06
         0.21   2.45421e+06   5.42809e+06
         0.22   2.44735e+06   5.43111e+06
         0.23   2.44151e+06   5.43275e+06
         0.24   2.43506e+06   5.43338e+06
         0.25     2.428e+06   5.43327e+06
         0.26   2.42056e+06   5.43259e+06
         0.27   2.41379e+06   5.43139e+06
         0.28   2.40794e+06   5.42966e+06
         0.29   2.40154e+06   5.42735e+06
          0.3   2.39382e+06   5.42438e+06
         0.31   2.38465e+06   5.42064e+06
         0.32   2.37506e+06    5.4159e+06
         0.33   2.36689e+06   5.40981e+06
         0.34   2.36069e+06   5.40283e+06
         0.35   2.35651e+06   5.39729e+06
         0.36   2.35464e+06   5.39577e+06
         0.37   2.35398e+06   5.39787e+06
         0.38   2.35226e+06   5.40168e+06
         0.39   2.34829e+06   5.40573e+06
          0.4    2.3425e+06   5.40915e+06
         0.41   2.33592e+06   5.41142e+06
         0.42    2.3296e+06   5.41219e+06
         0.43   2.32415e+06   5.41119e+06
         0.44   2.31939e+06   5.40833e+06
         0.45   2.31493e+06   5.40428e+06
         0.46   2.31079e+06   5.40192e+06
         0.47   2.30698e+06   5.40302e+06
         0.48   2.30306e+06   5.40616e+06
         0.49   2.29883e+06   5.40974e+06
          0.5   2.29461e+06   5.41267e+06
         0.51   2.29052e+06   5.41418e+06
         0.52   2.28637e+06   5.41352e+06
         0.53   2.28218e+06    5.4095e+06
         0.54   2.27822e+06   5.40713e+06
         0.55   2.27438e+06   5.41263e+06
         0.56   2.27036e+06   5.42233e+06
         0.57   2.26629e+06   5.43277e+06
         0.58   2.26261e+06    5.4413e+06
         0.59   2.25927e+06   5.44666e+06
          0.6   2.25583e+06   5.44761e+06
         0.61   2.25214e+06   5.44378e+06
         0.62    2.2485e+06   5.43383e+06
         0.63   2.24503e+06   5.43194e+06
         0.64   2.24154e+06   5.43391e+06
         0.65   2.23803e+06    5.4366e+06
         0.66   2.23476e+06   5.43766e+06
         0.67   2.23181e+06   5.43486e+06
         0.68   2.22887e+06   5.42651e+06
         0.69   2.22573e+06   5.42284e+06
          0.7   2.22259e+06   5.42541e+06
         0.71   2.21968e+06   5.43182e+06
         0.72   2.21683e+06   5.44062e+06
         0.73   2.21377e+06    5.4504e+06
         0.74    2.2106e+06   5.45893e+06
         0.75   2.20765e+06   5.46511e+06
         0.76   2.20499e+06   5.46843e+06
         0.77   2.20233e+06   5.46831e+06
         0.78   2.19953e+06    5.4633e+06
         0.79   2.19679e+06   5.45445e+06
          0.8   2.19435e+06   5.45473e+06
         0.81   2.19207e+06   5.45635e+06
         0.82   2.18963e+06   5.45733e+06
         0.83   2.18701e+06   5.45702e+06
         0.84    2.1845e+06   5.45538e+06
         0.85   2.18227e+06   5.45256e+06
         0.86   2.18008e+06   5.44888e+06
         0.87   2.17765e+06   5.44486e+06
         0.88   2.17506e+06   5.44111e+06
         0.89   2.17267e+06   5.43804e+06
          0.9   2.17062e+06   5.43536e+06
         0.91   2.16864e+06    5.4326e+06
         0.92    2.1664e+06    5.4296e+06
         0.93   2.16401e+06   5.42633e+06
         0.94    2.1618e+06   5.42206e+06
         0.95   2.15987e+06   5.41516e+06
         0.96   2.15796e+06   5.40315e+06
         0.97   2.15575e+06   5.40455e+06
         0.98   2.15336e+06   5.41061e+06
         0.99   2.15116e+06   5.41845e+06
            1   2.14932e+06   5.42679e+06
         1.01   2.14758e+06   5.43513e+06
         1.02   2.14556e+06   5.44322e+06
         1.03   2.14329e+06   5.45079e+06
         1.04   2.14116e+06   5.45756e+06
         1.05   2.13945e+06   5.46316e+06
         1.06   2.13797e+06   5.46704e+06
         1.07   2.13632e+06   5.46779e+06
         1.08   2.13435e+06   5.46302e+06
         1.09   2.13235e+06   5.46002e+06
          1.1    2.1307e+06   5.45914e+06
         1.11   2.12937e+06   5.45482e+06
         1.12   2.12796e+06   5.45006e+06
         1.13   2.12617e+06   5.44775e+06
         1.14   2.12418e+06   5.44618e+06
         1.15   2.12246e+06   5.44718e+06
         1.16   2.12124e+06   5.44846e+06
         1.17   2.12021e+06   5.44626e+06
         1.18   2.11887e+06   5.44745e+06
         1.19    2.1171e+06   5.45393e+06
          1.2   2.11525e+06    5.4613e+06
         1.21    2.1138e+06   5.46732e+06
         1.22   2.11282e+06   5.47055e+06
         1.23   2.11189e+06   5.47195e+06
         1.24   2.11054e+06   5.47255e+06
         1.25   2.10875e+06   5.47266e+06
         1.26   2.10695e+06   5.47218e+06
         1.27   2.10557e+06   5.47087e+06
         1.28    2.1046e+06   5.46851e+06
         1.29   2.10362e+06   5.46504e+06
          1.3   2.10226e+06   5.46045e+06
         1.31   2.10059e+06   5.45479e+06
         1.32   2.09899e+06   5.44808e+06
         1.33   2.09783e+06   5.44003e+06
         1.34   2.09704e+06   5.43005e+06
         1.35   2.09623e+06   5.41994e+06
         1.36   2.09503e+06   5.41009e+06
         1.37   2.09346e+06   5.39973e+06
         1.38   2.09186e+06   5.39131e+06
         1.39    2.0906e+06   5.39199e+06
          1.4   2.08971e+06   5.39756e+06
         1.41   2.08891e+06   5.40613e+06
         1.42   2.08788e+06    5.4164e+06
         1.43   2.08654e+06   5.42746e+06
         1.44   2.08515e+06    5.4386e+06
         1.45   2.08401e+06   5.44932e+06
         1.46    2.0832e+06   5.45921e+06
         1.47   2.08255e+06   5.46784e+06
         1.48   2.08177e+06   5.47443e+06
         1.49   2.08073e+06   5.47945e+06
          1.5   2.07956e+06   5.48443e+06
         1.51   2.07852e+06   5.48822e+06
         1.52   2.07777e+06   5.49021e+06
         1.53   2.07722e+06    5.4902e+06
         1.54   2.07663e+06   5.48824e+06
         1.55   2.07579e+06   5.48446e+06
         1.56   2.07472e+06   5.47899e+06
         1.57    2.0736e+06   5.47171e+06
         1.58   2.07264e+06   5.46178e+06
         1.59   2.07189e+06   5.45251e+06
          1.6   2.07122e+06   5.44522e+06
         1.61   2.07044e+06   5.44061e+06
         1.62   2.06948e+06   5.44172e+06
         1.63   2.06845e+06   5.44368e+06
         1.64   2.06755e+06   5.44578e+06
         1.65   2.06689e+06   5.44861e+06
         1.66   2.06642e+06   5.45266e+06
         1.67   2.06594e+06   5.45783e+06
         1.68   2.06529e+06   5.46278e+06
         1.69   2.06442e+06   5.46625e+06
          1.7   2.06348e+06    5.4677e+06
         1.71   2.06266e+06   5.46692e+06
         1.72   2.06206e+06   5.46378e+06
         1.73   2.06162e+06   5.45803e+06
         1.74   2.06116e+06   5.44873e+06
         1.75   2.06053e+06   5.43409e+06
         1.76   2.05972e+06   5.42941e+06
         1.77   2.05884e+06   5.42856e+06
         1.78   2.05805e+06   5.42815e+06
         1.79   2.05747e+06     5.427e+06
          1.8   2.05705e+06   5.42532e+06
         1.81   2.05663e+06   5.42337e+06
         1.82   2.05606e+06   5.42141e+06
         1.83   2.05532e+06   5.41963e+06
         1.84   2.05448e+06    5.4181e+06
         1.85   2.05371e+06   5.41674e+06
         1.86    2.0531e+06   5.41537e+06
         1.87   2.05265e+06   5.41379e+06
         1.88   2.05224e+06   5.41194e+06
         1.89   2.05174e+06   5.40986e+06
          1.9   2.05109e+06    5.4075e+06
         1.91   2.05032e+06    5.4039e+06
         1.92   2.04957e+06   5.39483e+06
         1.93   2.04896e+06   5.39453e+06
         1.94   2.04851e+06   5.40243e+06
         1.95   2.04814e+06   5.41291e+06
         1.96   2.04773e+06   5.42272e+06
         1.97   2.04717e+06   5.43023e+06
         1.98   2.04646e+06   5.43502e+06
         1.99   2.04568e+06   5.43718e+06
            2   2.04496e+06   5.43706e+06
         2.01   2.04437e+06   5.43503e+06
         2.02    2.0439e+06   5.43136e+06
         2.03   2.04347e+06   5.42626e+06
         2.04   2.04298e+06   5.41984e+06
         2.05   2.04238e+06   5.41208e+06
         2.06   2.04171e+06   5.40279e+06
         2.07   2.04104e+06   5.39132e+06
         2.08   2.04047e+06   5.37486e+06
         2.09   2.04004e+06   5.36627e+06
          2.1   2.03972e+06   5.36146e+06
         2.11    2.0394e+06   5.35781e+06
         2.12   2.03902e+06   5.35236e+06
         2.13   2.03854e+06   5.34347e+06
         2.14   2.03801e+06   5.32851e+06
         2.15   2.03749e+06   5.31687e+06
         2.16   2.03707e+06   5.30769e+06
         2.17   2.03675e+06   5.29804e+06
         2.18   2.03648e+06   5.28975e+06
         2.19   2.03619e+06    5.2838e+06
          2.2   2.03582e+06   5.27966e+06
         2.21   2.03534e+06   5.27626e+06
         2.22   2.03482e+06   5.27258e+06
         2.23   2.03433e+06    5.2677e+06
         2.24   2.03394e+06   5.26093e+06
         2.25   2.03365e+06   5.25182e+06
         2.26   2.03341e+06   5.24014e+06
         2.27   2.03316e+06   5.22529e+06
         2.28   2.03281e+06   5.20712e+06
         2.29   2.03236e+06    5.1858e+06
          2.3   2.03185e+06   5.16147e+06
         2.31   2.03136e+06   5.13466e+06
         2.32   2.03094e+06   5.10645e+06
         2.33   2.03062e+06   5.07778e+06
         2.34   2.03036e+06   5.04898e+06
         2.35   2.03009e+06   5.01992e+06
         2.36   2.02977e+06   4.99036e+06
         2.37   2.02938e+06   4.96005e+06
         2.38   2.02894e+06   4.92887e+06
         2.39   2.02853e+06   4.89668e+06
          2.4   2.02819e+06   4.86335e+06
         2.41   2.02796e+06   4.82877e+06
         2.42   2.02781e+06    4.7928e+06
         2.43   2.02771e+06   4.75529e+06
         2.44   2.02758e+06    4.7161e+06
         2.45    2.0274e+06   4.67506e+06
         2.46   2.02717e+06   4.63202e+06
         2.47   2.02693e+06   4.58682e+06
         2.48   2.02674e+06   4.53933e+06
         2.49   2.02664e+06   4.48943e+06
          2.5   2.02663e+06   4.43702e+06
         2.51   2.02667e+06     4.382e+06
         2.52   2.02671e+06   4.32427e+06
         2.53   2.02669e+06   4.26379e+06
         2.54    2.0266e+06    4.2006e+06
         2.55   2.02644e+06    4.1348e+06
         2.56   2.02628e+06   4.06632e+06
         2.57   2.02616e+06   3.99441e+06
         2.58   2.02612e+06   3.91758e+06
         2.59   2.02613e+06   3.83923e+06
          2.6   2.02615e+06   3.76395e+06
         2.61   2.02614e+06   3.73108e+06
         2.62   2.02603e+06   3.70299e+06
         2.63   2.02583e+06   3.72665e+06
         2.64   2.02556e+06   3.76766e+06
         2.65   2.02527e+06   3.80689e+06
         2.66   2.02502e+06   3.83071e+06
         2.67   2.02484e+06   3.83866e+06
         2.68   2.02471e+06    3.8336e+06
         2.69    2.0246e+06   3.81839e+06
          2.7   2.02447e+06     3.798e+06
         2.71   2.02429e+06   3.77722e+06
         2.72   2.02406e+06   3.75727e+06
         2.73   2.02379e+06    3.7372e+06
         2.74   2.02355e+06   3.71645e+06
         2.75   2.02338e+06    3.6953e+06
         2.76   2.02329e+06    3.6748e+06
         2.77    2.0233e+06    3.6561e+06
         2.78   2.02338e+06   3.63975e+06
         2.79   2.02347e+06   3.62576e+06
          2.8   2.02357e+06   3.61377e+06
         2.81   2.02366e+06   3.60305e+06
         2.82   2.02373e+06   3.59276e+06
         2.83   2.02382e+06   3.58214e+06
         2.84   2.02394e+06   3.57067e+06
         2.85   2.02408e+06   3.55811e+06
         2.86   2.02425e+06   3.54444e+06
         2.87   2.02442e+06   3.52976e+06
         2.88   2.02459e+06   3.51426e+06
         2.89   2.02474e+06   3.49815e+06
          2.9    2.0249e+06    3.4817e+06
         2.91   2.02508e+06   3.46519e+06
         2.92   2.02529e+06    3.4489e+06
         2.93   2.02553e+06   3.43311e+06
         2.94    2.0258e+06   3.41804e+06
         2.95    2.0261e+06    3.4039e+06
         2.96   2.02645e+06   3.39086e+06
         2.97   2.02686e+06   3.37905e+06
         2.98   2.02738e+06   3.36855e+06
         2.99   2.02805e+06   3.35935e+06
            3   2.02891e+06   3.35148e+06
         3.01   2.02996e+06   3.34495e+06
         3.02   2.03117e+06   3.33979e+06
         3.03   2.03248e+06   3.33597e+06
         3.04   2.03384e+06    3.3334e+06
         3.05   2.03522e+06   3.33199e+06
         3.06   2.03663e+06   3.33177e+06
         3.07   2.03815e+06    3.3327e+06
         3.08   2.03988e+06   3.33445e+06
         3.09   2.04191e+06   3.33673e+06
          3.1   2.04428e+06   3.33903e+06
         3.11   2.04698e+06    3.3402e+06
         3.12   2.04991e+06   3.34251e+06
         3.13   2.05294e+06   3.34965e+06
         3.14   2.05593e+06   3.35715e+06
         3.15   2.05883e+06   3.36429e+06
         3.16   2.06165e+06   3.37027e+06
         3.17   2.06446e+06   3.37513e+06
         3.18   2.06739e+06   3.37883e+06
         3.19   2.07055e+06   3.38136e+06
          3.2   2.07398e+06    3.3827e+06
         3.21   2.07759e+06   3.38279e+06
         3.22   2.08123e+06   3.38147e+06
         3.23   2.08469e+06   3.37873e+06
         3.24    2.0878e+06   3.37457e+06
         3.25   2.09044e+06   3.36904e+06
         3.26   2.09261e+06    3.3622e+06
         3.27   2.09442e+06   3.35417e+06
         3.28   2.09603e+06   3.34507e+06
         3.29   2.09765e+06   3.33502e+06
          3.3    2.0994e+06   3.32414e+06
         3.31   2.10137e+06   3.31255e+06
         3.32   2.10356e+06   3.30031e+06
         3.33   2.10585e+06   3.28765e+06
         3.34   2.10812e+06   3.27528e+06
         3.35   2.11018e+06   3.26335e+06
         3.36   2.11193e+06   3.25194e+06
         3.37   2.11333e+06   3.24112e+06
         3.38   2.11439e+06   3.23073e+06
         3.39   2.11522e+06   3.22075e+06
          3.4   2.11593e+06   3.21111e+06
         3.41   2.11669e+06   3.20156e+06
         3.42    2.1176e+06   3.19104e+06
         3.43   2.11876e+06   3.18272e+06
         3.44   2.12016e+06   3.17997e+06
         3.45   2.12173e+06   3.17856e+06
         3.46   2.12336e+06   3.17783e+06
         3.47   2.12484e+06   3.17745e+06
         3.48   2.12604e+06   3.17726e+06
         3.49   2.12683e+06   3.17722e+06
          3.5   2.12716e+06   3.17713e+06
         3.51   2.12707e+06   3.17702e+06
         3.52   2.12672e+06   3.17691e+06
         3.53    2.1262e+06   3.17676e+06
         3.54   2.12565e+06   3.17656e+06
         3.55   2.12515e+06   3.17624e+06
         3.56   2.12476e+06   3.17571e+06
         3.57   2.12453e+06   3.17492e+06
         3.58   2.12442e+06   3.17384e+06
         3.59    2.1244e+06   3.17245e+06
          3.6   2.12439e+06    3.1707e+06
         3.61   2.12434e+06   3.16853e+06
         3.62    2.1242e+06   3.16574e+06
         3.63   2.12395e+06    3.1626e+06
         3.64   2.12361e+06   3.15912e+06
         3.65   2.12324e+06   3.15521e+06
         3.66   2.12291e+06   3.15067e+06
         3.67   2.12271e+06   3.14499e+06
         3.68   2.12271e+06   3.13755e+06
         3.69   2.12298e+06   3.13496e+06
          3.7   2.12359e+06    3.1331e+06
         3.71   2.12457e+06   3.13132e+06
         3.72   2.12593e+06   3.12926e+06
         3.73   2.12765e+06   3.12674e+06
         3.74   2.12968e+06   3.12365e+06
         3.75   2.13196e+06   3.11996e+06
         3.76    2.1344e+06   3.11568e+06
         3.77   2.13695e+06   3.11123e+06
         3.78   2.13955e+06   3.10668e+06
         3.79   2.14218e+06   3.10193e+06
          3.8   2.14487e+06     3.097e+06
         3.81   2.14762e+06   3.09192e+06
         3.82   2.15047e+06   3.08674e+06
         3.83   2.15339e+06   3.08153e+06
         3.84   2.15629e+06   3.07633e+06
         3.85   2.15894e+06   3.07119e+06
         3.86   2.16099e+06   3.06613e+06
         3.87   2.16203e+06   3.06117e+06
         3.88   2.16166e+06   3.05631e+06
         3.89   2.15971e+06   3.05155e+06
          3.9   2.15628e+06   3.04692e+06
         3.91   2.15169e+06   3.04234e+06
         3.92   2.14623e+06   3.03752e+06
         3.93   2.14017e+06   3.03217e+06
         3.94   2.13369e+06   3.02509e+06
         3.95   2.12694e+06   3.02065e+06
         3.96   2.12006e+06   3.01916e+06
         3.97   2.11316e+06   3.01773e+06
         3.98   2.10634e+06   3.01611e+06
         3.99   2.09971e+06   3.01423e+06
            4   2.09333e+06    3.0121e+06
         4.01   2.08728e+06   3.00977e+06
         4.02   2.08159e+06   3.00724e+06
         4.03   2.07628e+06   3.00453e+06
         4.04    2.0713e+06   3.00169e+06
         4.05    2.0666e+06   2.99876e+06
         4.06   2.06207e+06    2.9958e+06
         4.07   2.05763e+06   2.99283e+06
         4.08   2.05316e+06   2.98989e+06
         4.09   2.04861e+06   2.98699e+06
          4.1   2.04391e+06   2.98416e+06
         4.11   2.03904e+06   2.98142e+06
         4.12   2.03398e+06   2.97877e+06
         4.13   2.02872e+06   2.97624e+06
         4.14   2.02326e+06    2.9738e+06
         4.15   2.01764e+06   2.97146e+06
         4.16   2.01184e+06   2.96922e+06
         4.17   2.00591e+06   2.96708e+06
         4.18   1.99988e+06   2.96502e+06
         4.19   1.99378e+06   2.96302e+06
          4.2   1.98766e+06   2.96106e+06
         4.21   1.98154e+06   2.95912e+06
         4.22   1.97546e+06   2.95719e+06
         4.23   1.96945e+06   2.95537e+06
         4.24   1.96357e+06   2.95384e+06
         4.25   1.95791e+06   2.95255e+06
         4.26   1.95253e+06   2.95126e+06
         4.27   1.94747e+06   2.94984e+06
         4.28   1.94277e+06   2.95227e+06
         4.29   1.93839e+06   2.95503e+06
          4.3   1.93428e+06   2.95774e+06
         4.31   1.93037e+06   2.95989e+06
         4.32   1.92656e+06   2.96142e+06
         4.33   1.92279e+06   2.96242e+06
         4.34   1.91898e+06     2.963e+06
         4.35   1.91501e+06   2.96318e+06
         4.36   1.91078e+06   2.96304e+06
         4.37   1.90618e+06   2.96267e+06
         4.38   1.90112e+06   2.96215e+06
         4.39   1.89556e+06   2.96152e+06
          4.4    1.8895e+06   2.96085e+06
         4.41   1.88297e+06   2.96017e+06
         4.42   1.87602e+06   2.95954e+06
         4.43   1.86868e+06   2.95899e+06
         4.44   1.86098e+06   2.95853e+06
         4.45   1.85298e+06   2.95813e+06
         4.46   1.84473e+06   2.95773e+06
         4.47   1.83631e+06   2.95719e+06
         4.48   1.82777e+06    2.9563e+06
         4.49   1.81915e+06   2.95428e+06
          4.5   1.81045e+06   2.95114e+06
         4.51   1.80163e+06   2.94978e+06
         4.52   1.79263e+06   2.94908e+06
         4.53   1.78342e+06   2.94935e+06
         4.54   1.77396e+06    2.9501e+06
         4.55   1.76428e+06   2.95088e+06
         4.56    1.7544e+06   2.95145e+06
         4.57   1.74432e+06   2.95172e+06
         4.58   1.73397e+06   2.95164e+06
         4.59    1.7233e+06   2.95122e+06
          4.6   1.71227e+06   2.95045e+06
         4.61   1.70087e+06   2.94936e+06
         4.62    1.6893e+06   2.94796e+06
         4.63   1.67807e+06   2.94625e+06
         4.64   1.66761e+06   2.94422e+06
         4.65   1.65791e+06   2.94188e+06
         4.66   1.64878e+06   2.93922e+06
         4.67   1.64008e+06   2.93634e+06
         4.68   1.63175e+06   2.93344e+06
         4.69   1.62371e+06    2.9305e+06
          4.7    1.6159e+06    2.9274e+06
         4.71   1.60826e+06   2.92645e+06
         4.72   1.60078e+06   2.92787e+06
         4.73   1.59344e+06   2.92886e+06
         4.74   1.58626e+06   2.92899e+06
         4.75   1.57922e+06   2.92861e+06
         4.76   1.57234e+06   2.92796e+06
         4.77   1.56562e+06   2.92698e+06
         4.78   1.55905e+06   2.92568e+06
         4.79   1.55268e+06   2.92408e+06
          4.8    1.5465e+06   2.92218e+06
         4.81   1.54054e+06      2.92e+06
         4.82   1.53481e+06   2.91754e+06
         4.83    1.5293e+06   2.91481e+06
         4.84     1.524e+06   2.91184e+06
         4.85   1.51888e+06   2.90862e+06
         4.86   1.51394e+06   2.90524e+06
         4.87   1.50916e+06   2.90218e+06
         4.88   1.50452e+06   2.89934e+06
         4.89       1.5e+06   2.89649e+06
          4.9   1.49556e+06   2.89354e+06
         4.91   1.49118e+06   2.89044e+06
         4.92   1.48684e+06    2.8872e+06
         4.93   1.48252e+06   2.88382e+06
         4.94    1.4782e+06   2.88033e+06
         4.95   1.47387e+06   2.87672e+06
         4.96   1.46951e+06   2.87301e+06
         4.97   1.46513e+06   2.86919e+06
         4.98   1.46073e+06   2.86525e+06
         4.99   1.45631e+06   2.86117e+06
            5   1.45187e+06   2.85691e+06
         5.01   1.44744e+06   2.85245e+06
         5.02   1.44301e+06   2.84771e+06
         5.03   1.43859e+06   2.84259e+06
         5.04    1.4342e+06   2.83687e+06
         5.05   1.42984e+06   2.82973e+06
         5.06   1.42554e+06   2.82389e+06
         5.07   1.42131e+06   2.82028e+06
         5.08   1.41716e+06   2.81639e+06
         5.09    1.4131e+06   2.81219e+06
          5.1   1.40913e+06    2.8076e+06
         5.11   1.40527e+06   2.80259e+06
         5.12   1.40154e+06   2.79712e+06
         5.13   1.39794e+06   2.79113e+06
         5.14   1.39449e+06   2.78453e+06
         5.15   1.39117e+06    2.7771e+06
         5.16   1.38797e+06   2.76798e+06
         5.17   1.38488e+06   2.76049e+06
         5.18   1.38189e+06   2.75463e+06
         5.19     1.379e+06   2.74928e+06
          5.2    1.3762e+06   2.74391e+06
         5.21   1.37347e+06   2.73819e+06
         5.22   1.37079e+06   2.73192e+06
         5.23   1.36813e+06   2.72501e+06
         5.24   1.36549e+06   2.71742e+06
         5.25   1.36284e+06   2.70913e+06
         5.26   1.36017e+06   2.70015e+06
         5.27   1.35746e+06   2.69056e+06
         5.28   1.35472e+06   2.68067e+06
         5.29   1.35192e+06   2.67045e+06
          5.3   1.34908e+06   2.65985e+06
         5.31   1.34619e+06   2.64886e+06
         5.32   1.34325e+06   2.63751e+06
         5.33   1.34027e+06   2.62583e+06
         5.34   1.33724e+06   2.61386e+06
         5.35   1.33419e+06   2.60164e+06
         5.36    1.3311e+06   2.58919e+06
         5.37     1.328e+06   2.57654e+06
         5.38   1.32487e+06   2.56372e+06
         5.39   1.32174e+06   2.55072e+06
          5.4    1.3186e+06   2.53757e+06
         5.41   1.31546e+06   2.52427e+06
         5.42   1.31232e+06   2.51082e+06
         5.43   1.30919e+06   2.49721e+06
         5.44   1.30608e+06   2.48344e+06
         5.45   1.30298e+06   2.46951e+06
         5.46    1.2999e+06   2.45541e+06
         5.47   1.29686e+06   2.44113e+06
         5.48   1.29384e+06   2.42666e+06
         5.49   1.29086e+06   2.41199e+06
          5.5   1.28791e+06   2.39711e+06
         5.51   1.28501e+06   2.38197e+06
         5.52   1.28215e+06   2.36653e+06
         5.53   1.27936e+06   2.35059e+06
         5.54   1.27662e+06   2.33361e+06
         5.55   1.27394e+06   2.31578e+06
         5.56   1.27132e+06   2.30118e+06
         5.57   1.26876e+06   2.28677e+06
         5.58   1.26627e+06   2.27246e+06
         5.59   1.26383e+06   2.25814e+06
          5.6   1.26145e+06   2.24377e+06
         5.61   1.25911e+06   2.22932e+06
         5.62   1.25682e+06   2.21479e+06
         5.63   1.25457e+06   2.20017e+06
         5.64   1.25235e+06   2.18545e+06
         5.65   1.25017e+06   2.17058e+06
         5.66     1.248e+06   2.15549e+06
         5.67   1.24586e+06   2.13987e+06
         5.68   1.24372e+06   2.12456e+06
         5.69   1.24159e+06   2.11082e+06
          5.7   1.23946e+06    2.0977e+06
         5.71   1.23732e+06   2.08507e+06
         5.72   1.23516e+06   2.07272e+06
         5.73   1.23299e+06   2.06048e+06
         5.74    1.2308e+06   2.04827e+06
         5.75   1.22859e+06   2.03606e+06
         5.76   1.22635e+06   2.02386e+06
         5.77   1.22408e+06   2.01173e+06
         5.78   1.22179e+06    1.9995e+06
         5.79   1.21949e+06   1.98712e+06
          5.8   1.21717e+06   1.97456e+06
         5.81   1.21483e+06    1.9616e+06
         5.82   1.21249e+06   1.94876e+06
         5.83   1.21014e+06   1.93811e+06
         5.84   1.20779e+06   1.92755e+06
         5.85   1.20545e+06   1.91711e+06
         5.86   1.20312e+06   1.90678e+06
         5.87    1.2008e+06   1.89657e+06
         5.88   1.19849e+06   1.88647e+06
         5.89    1.1962e+06    1.8765e+06
          5.9   1.19393e+06   1.86665e+06
         5.91   1.19169e+06   1.85693e+06
         5.92   1.18947e+06   1.84736e+06
         5.93   1.18728e+06   1.83794e+06
         5.94   1.18512e+06   1.82866e+06
         5.95   1.18302e+06   1.81954e+06
         5.96   1.18096e+06   1.81058e+06
         5.97   1.17895e+06   1.80177e+06
         5.98   1.17699e+06   1.79312e+06
         5.99    1.1751e+06   1.78463e+06
            6   1.17327e+06    1.7763e+06
         6.01   1.17151e+06   1.76812e+06
         6.02   1.16981e+06    1.7601e+06
         6.03   1.16817e+06   1.75223e+06
         6.04    1.1666e+06    1.7445e+06
         6.05    1.1651e+06   1.73691e+06
         6.06   1.16365e+06   1.72946e+06
         6.07   1.16227e+06   1.72214e+06
         6.08   1.16096e+06   1.71495e+06
         6.09    1.1597e+06   1.70788e+06
          6.1    1.1585e+06   1.70093e+06
         6.11   1.15735e+06   1.69409e+06
         6.12   1.15624e+06   1.68737e+06
         6.13   1.15517e+06   1.68076e+06
         6.14   1.15414e+06   1.67425e+06
         6.15   1.15314e+06   1.66785e+06
         6.16   1.15216e+06   1.66154e+06
         6.17   1.15119e+06   1.65534e+06
         6.18   1.15023e+06   1.64923e+06
         6.19   1.14928e+06    1.6432e+06
          6.2   1.14833e+06   1.63726e+06
         6.21   1.14737e+06    1.6314e+06
         6.22    1.1464e+06    1.6256e+06
         6.23   1.14542e+06   1.61987e+06
         6.24   1.14444e+06    1.6142e+06
         6.25   1.14345e+06   1.60859e+06
         6.26   1.14244e+06   1.60302e+06
         6.27   1.14143e+06    1.5975e+06
         6.28   1.14041e+06   1.59202e+06
         6.29   1.13938e+06   1.58658e+06
          6.3   1.13835e+06   1.58118e+06
         6.31   1.13731e+06   1.57581e+06
         6.32   1.13628e+06   1.57048e+06
         6.33   1.13525e+06   1.56518e+06
         6.34   1.13421e+06   1.55992e+06
         6.35   1.13318e+06    1.5547e+06
         6.36   1.13214e+06   1.54952e+06
         6.37   1.13111e+06   1.54438e+06
         6.38   1.13008e+06   1.53929e+06
         6.39   1.12904e+06   1.53425e+06
          6.4     1.128e+06   1.52925e+06
         6.41   1.12697e+06   1.52431e+06
         6.42   1.12594e+06   1.51942e+06
         6.43    1.1249e+06   1.51459e+06
         6.44   1.12386e+06   1.50981e+06
         6.45    1.1228e+06   1.50509e+06
         6.46   1.12174e+06   1.50043e+06
         6.47   1.12067e+06   1.49582e+06
         6.48    1.1196e+06   1.49127e+06
         6.49   1.11851e+06   1.48678e+06
          6.5    1.1174e+06   1.48234e+06
         6.51   1.11627e+06   1.47795e+06
         6.52   1.11512e+06   1.47362e+06
         6.53   1.11394e+06   1.46934e+06
         6.54   1.11275e+06    1.4651e+06
         6.55   1.11152e+06   1.46092e+06
         6.56   1.11027e+06   1.45678e+06
         6.57   1.10898e+06   1.45268e+06
         6.58   1.10766e+06   1.44864e+06
         6.59   1.10631e+06   1.44463e+06
          6.6   1.10493e+06   1.44067e+06
         6.61   1.10351e+06   1.43675e+06
         6.62   1.10205e+06   1.43287e+06
         6.63   1.10056e+06   1.42904e+06
         6.64   1.09903e+06   1.42524e+06
         6.65   1.09746e+06   1.42148e+06
         6.66   1.09584e+06   1.41775e+06
         6.67   1.09418e+06   1.41407e+06
         6.68   1.09248e+06   1.41042e+06
         6.69   1.09073e+06    1.4068e+06
          6.7   1.08894e+06   1.40322e+06
         6.71    1.0871e+06   1.39967e+06
         6.72   1.08522e+06   1.39616e+06
         6.73   1.08329e+06   1.39267e+06
         6.74   1.08131e+06   1.38922e+06
         6.75   1.07928e+06   1.38581e+06
         6.76    1.0772e+06   1.38242e+06
         6.77   1.07507e+06   1.37905e+06
         6.78   1.07289e+06   1.37572e+06
         6.79   1.07065e+06   1.37241e+06
          6.8   1.06837e+06   1.36913e+06
         6.81   1.06605e+06   1.36587e+06
         6.82   1.06367e+06   1.36264e+06
         6.83   1.06126e+06   1.35942e+06
         6.84   1.05879e+06   1.35623e+06
         6.85   1.05629e+06   1.35305e+06
         6.86   1.05375e+06    1.3499e+06
         6.87   1.05117e+06   1.34676e+06
         6.88   1.04856e+06   1.34364e+06
         6.89   1.04591e+06   1.34054e+06
          6.9   1.04323e+06   1.33745e+06
         6.91   1.04051e+06   1.33438e+06
         6.92   1.03777e+06   1.33132e+06
         6.93   1.03499e+06   1.32826e+06
         6.94   1.03219e+06   1.32522e+06
         6.95   1.02936e+06   1.32217e+06
         6.96    1.0265e+06   1.31913e+06
         6.97   1.02363e+06   1.31609e+06
         6.98   1.02073e+06   1.31304e+06
         6.99   1.01782e+06   1.30999e+06
            7   1.01488e+06   1.30694e+06
         7.01   1.01194e+06    1.3039e+06
         7.02   1.00898e+06   1.30086e+06
         7.03   1.00601e+06   1.29782e+06
         7.04   1.00303e+06   1.29476e+06
         7.05   1.00004e+06   1.29167e+06
         7.06        997036   1.28856e+06
         7.07        994022   1.28547e+06
         7.08        990990   1.28249e+06
         7.09        987941   1.27965e+06
          7.1        984877   1.27715e+06