# Probe 0 (-45 0 0)
# Probe 1 (3.2 0 0)
#       Probe             0             1
#        Time
            0         5e+06         5e+06
         0.01         5e+06   4.99999e+06
         0.02         5e+06   3.32338e+06
         0.03         5e+06   1.58074e+06
         0.04         5e+06   1.41116e+06
         0.05         5e+06   1.47825e+06
         0.06         5e+06   1.50688e+06
         0.07         5e+06   1.50847e+06
         0.08         5e+06   1.50701e+06
         0.09         5e+06    1.5036e+06
          0.1         5e+06   1.50078e+06
         0.11         5e+06   1.50302e+06
         0.12         5e+06    1.5206e+06
         0.13         5e+06   1.54062e+06
         0.14         5e+06   1.55051e+06
         0.15         5e+06   1.55402e+06
         0.16         5e+06   1.55469e+06
         0.17         5e+06   1.55525e+06
         0.18         5e+06   1.55525e+06
         0.19         5e+06   1.55515e+06
          0.2         5e+06   1.55508e+06
         0.21         5e+06   1.55522e+06
         0.22         5e+06    1.5555e+06
         0.23         5e+06   1.55542e+06
         0.24         5e+06   1.55516e+06
         0.25         5e+06   1.55505e+06
         0.26         5e+06   1.55521e+06
         0.27         5e+06   1.55546e+06
         0.28   4.99989e+06   1.55528e+06
         0.29   4.99026e+06   1.55517e+06
          0.3   4.91043e+06   1.55531e+06
         0.31   4.75933e+06   1.55518e+06
         0.32   4.59963e+06   1.55506e+06
         0.33   4.45336e+06     1.555e+06
         0.34   4.32157e+06    1.5552e+06
         0.35   4.17432e+06   1.55526e+06
         0.36   3.96425e+06   1.55512e+06
         0.37   3.73564e+06   1.55501e+06
         0.38   3.52292e+06   1.55532e+06
         0.39   3.33182e+06   1.55512e+06
          0.4   3.16117e+06    1.5551e+06
         0.41    3.0093e+06   1.55541e+06
         0.42   2.87538e+06   1.55525e+06
         0.43   2.76353e+06    1.5554e+06
         0.44   2.69727e+06   1.55534e+06
         0.45   2.65523e+06   1.55502e+06
         0.46   2.60361e+06   1.55549e+06
         0.47   2.55617e+06   1.55501e+06
         0.48   2.51957e+06   1.55513e+06
         0.49   2.51449e+06   1.55524e+06
          0.5    2.5303e+06   1.55536e+06
         0.51   2.53281e+06    1.5553e+06
         0.52   2.53301e+06   1.55472e+06
         0.53   2.53303e+06   1.54468e+06
         0.54   2.53206e+06    1.4984e+06
         0.55   2.53049e+06   1.42121e+06
         0.56   2.53013e+06   1.33837e+06
         0.57   2.53028e+06   1.26198e+06
         0.58   2.53041e+06   1.19341e+06
         0.59   2.53048e+06   1.13195e+06
          0.6    2.5305e+06   1.07628e+06
         0.61   2.53053e+06   1.02544e+06
         0.62   2.53053e+06        978888
         0.63   2.53052e+06        936026
         0.64    2.5305e+06        896644
         0.65   2.53051e+06        860632
         0.66   2.53047e+06        826969
         0.67   2.53055e+06        796105
         0.68   2.53054e+06        768095
         0.69   2.53051e+06        742580
          0.7   2.53053e+06        721590
         0.71   2.53054e+06        712758
         0.72   2.53061e+06        722781
         0.73   2.53055e+06        727206
         0.74   2.53053e+06        727262
         0.75   2.53059e+06        726925
         0.76   2.53032e+06        725615
         0.77   2.52595e+06        724906
         0.78   2.51109e+06        724999
         0.79   2.48448e+06        725021
          0.8   2.44891e+06        725171
         0.81    2.4072e+06        725096
         0.82   2.35871e+06        725093
         0.83   2.30042e+06        725184
         0.84   2.23352e+06        725210
         0.85   2.16164e+06        725122
         0.86     2.088e+06        725385
         0.87   2.01527e+06        725146
         0.88   1.94525e+06        725150
         0.89    1.8786e+06        725266
          0.9   1.81551e+06        725105
         0.91   1.75585e+06        725256
         0.92   1.69944e+06        725097
         0.93   1.64618e+06        725088
         0.94   1.59566e+06        725171
         0.95   1.54773e+06        725177
         0.96    1.5022e+06        725102
         0.97   1.45897e+06        725310
         0.98   1.41795e+06        725139
         0.99   1.37894e+06        724646
            1   1.34202e+06        720245
