# Probe 0 (249.6 0 0)
# Probe 1 (116.5 0 0)
#       Probe             0             1
#        Time
            0   3.59583e+06   3.59583e+06
         0.01   3.76839e+06   3.76794e+06
         0.02   3.68382e+06   3.68195e+06
         0.03   3.62497e+06   3.65171e+06
         0.04   3.57104e+06   3.63186e+06
         0.05   3.55363e+06   3.61564e+06
         0.06   3.54784e+06   3.60698e+06
         0.07   3.53833e+06    3.6028e+06
         0.08   3.52301e+06   3.59879e+06
         0.09   3.48987e+06   3.59411e+06
          0.1   3.42327e+06   3.59081e+06
         0.11   3.32566e+06   3.58868e+06
         0.12   3.18359e+06   3.58707e+06
         0.13   3.03767e+06   3.58565e+06
         0.14   2.89795e+06   3.58503e+06
         0.15   2.78734e+06    3.5847e+06
         0.16   2.69591e+06    3.5842e+06
         0.17   2.61844e+06   3.58366e+06
         0.18   2.54557e+06   3.58299e+06
         0.19     2.496e+06   3.58226e+06
          0.2   2.43723e+06   3.58158e+06
         0.21   2.39278e+06   3.58078e+06
         0.22   2.35192e+06   3.57994e+06
         0.23   2.31461e+06   3.57925e+06
         0.24   2.28495e+06   3.57857e+06
         0.25   2.25302e+06   3.57791e+06
         0.26   2.22748e+06   3.57745e+06
         0.27   2.20061e+06   3.57708e+06
         0.28   2.17923e+06   3.57683e+06
         0.29   2.15595e+06   3.57663e+06
          0.3   2.13532e+06    3.5765e+06
         0.31   2.11696e+06   3.57639e+06
         0.32   2.10306e+06    3.5763e+06
         0.33   2.08594e+06   3.57621e+06
         0.34   2.07096e+06   3.57616e+06
         0.35   2.05764e+06   3.57609e+06
         0.36    2.0424e+06   3.57604e+06
         0.37   2.03062e+06   3.57599e+06
         0.38   2.02015e+06   3.57595e+06
         0.39   2.00719e+06   3.57588e+06
          0.4   1.99673e+06   3.57583e+06
         0.41   1.98652e+06   3.57576e+06
         0.42   1.97841e+06   3.57569e+06
         0.43   1.96753e+06   3.57562e+06
         0.44   1.95938e+06   3.57553e+06
         0.45   1.94999e+06   3.57544e+06
         0.46   1.94246e+06   3.57533e+06
         0.47   1.93414e+06   3.57524e+06
         0.48   1.92705e+06   3.57516e+06
         0.49   1.91964e+06   3.57507e+06
          0.5   1.91331e+06   3.57499e+06
         0.51   1.90614e+06   3.57493e+06
         0.52   1.90026e+06   3.57485e+06
         0.53   1.89354e+06   3.57479e+06
         0.54   1.88813e+06   3.57474e+06
         0.55   1.88155e+06   3.57471e+06
         0.56   1.87633e+06   3.57468e+06
         0.57   1.87001e+06   3.57466e+06
         0.58   1.86387e+06   3.57464e+06
         0.59   1.85825e+06   3.57463e+06
          0.6   1.85328e+06   3.57461e+06
         0.61   1.84807e+06   3.57461e+06
         0.62   1.84303e+06   3.57461e+06
         0.63   1.83846e+06   3.57462e+06
         0.64   1.83351e+06   3.57463e+06
         0.65   1.82778e+06   3.57465e+06
         0.66   1.82316e+06   3.57466e+06
         0.67    1.8184e+06   3.57467e+06
         0.68   1.81433e+06    3.5747e+06
         0.69   1.80926e+06   3.57473e+06
          0.7   1.80463e+06   3.57476e+06
         0.71   1.80076e+06   3.57479e+06
         0.72   1.79614e+06   3.57483e+06
         0.73    1.7912e+06   3.57486e+06
         0.74   1.78699e+06   3.57489e+06
         0.75   1.78259e+06   3.57492e+06
         0.76   1.77867e+06   3.57494e+06
         0.77    1.7745e+06   3.57497e+06
         0.78   1.77022e+06   3.57499e+06
         0.79   1.76625e+06   3.57501e+06
          0.8   1.76264e+06   3.57503e+06
         0.81   1.75841e+06   3.57505e+06
         0.82   1.75436e+06   3.57507e+06
         0.83   1.75059e+06   3.57508e+06
         0.84   1.74704e+06    3.5751e+06
         0.85   1.74322e+06   3.57511e+06
         0.86   1.73999e+06   3.57512e+06
         0.87    1.7358e+06   3.57513e+06
         0.88   1.73289e+06   3.57514e+06
         0.89   1.72868e+06   3.57515e+06
          0.9   1.72503e+06   3.57515e+06
         0.91   1.72214e+06   3.57515e+06
         0.92   1.71795e+06   3.57516e+06
         0.93   1.71514e+06   3.57516e+06
         0.94   1.71117e+06   3.57516e+06
         0.95   1.70852e+06   3.57516e+06
         0.96   1.70462e+06   3.57516e+06
         0.97   1.70167e+06   3.57516e+06
         0.98   1.69847e+06   3.57515e+06
         0.99    1.6949e+06   3.57515e+06
            1   1.69175e+06   3.57514e+06
         1.01   1.68878e+06   3.57514e+06
         1.02   1.68511e+06   3.57513e+06
         1.03   1.68259e+06   3.57512e+06
         1.04   1.67891e+06   3.57511e+06
         1.05   1.67603e+06   3.57511e+06
         1.06    1.6735e+06    3.5751e+06
         1.07   1.66997e+06   3.57509e+06
         1.08   1.66718e+06   3.57508e+06
         1.09   1.66432e+06   3.57507e+06
          1.1   1.66116e+06   3.57505e+06
         1.11   1.65843e+06   3.57504e+06
         1.12   1.65562e+06   3.57503e+06
         1.13   1.65251e+06   3.57502e+06
         1.14   1.64966e+06   3.57501e+06
         1.15   1.64722e+06     3.575e+06
         1.16   1.64412e+06   3.57499e+06
         1.17   1.64139e+06   3.57497e+06
         1.18   1.63899e+06   3.57495e+06
         1.19   1.63621e+06   3.57493e+06
          1.2   1.63334e+06   3.57489e+06
         1.21   1.63086e+06   3.57485e+06
         1.22   1.62871e+06   3.57481e+06
         1.23   1.62556e+06   3.57477e+06
         1.24   1.62285e+06   3.57473e+06
         1.25   1.62028e+06   3.57468e+06
         1.26   1.61806e+06   3.57463e+06
         1.27   1.61556e+06   3.57456e+06
         1.28    1.6131e+06    3.5745e+06
         1.29   1.61043e+06   3.57443e+06
          1.3   1.60777e+06   3.57437e+06
         1.31   1.60536e+06   3.57429e+06
         1.32   1.60297e+06   3.57422e+06
         1.33   1.60059e+06   3.57414e+06
         1.34   1.59831e+06   3.57405e+06
         1.35   1.59581e+06   3.57398e+06
         1.36   1.59386e+06   3.57389e+06
         1.37   1.59134e+06   3.57381e+06
         1.38   1.58883e+06   3.57374e+06
         1.39   1.58665e+06   3.57367e+06
          1.4    1.5848e+06    3.5736e+06
         1.41   1.58185e+06   3.57353e+06
         1.42   1.58005e+06   3.57349e+06
         1.43   1.57737e+06   3.57345e+06
         1.44   1.57516e+06   3.57342e+06
         1.45   1.57314e+06    3.5734e+06
         1.46   1.57127e+06    3.5734e+06
         1.47   1.56886e+06   3.57341e+06
         1.48   1.56655e+06   3.57343e+06
         1.49   1.56463e+06   3.57344e+06
          1.5   1.56236e+06   3.57345e+06
         1.51   1.56064e+06   3.57347e+06
         1.52   1.55824e+06   3.57348e+06
         1.53   1.55654e+06    3.5735e+06
         1.54   1.55413e+06   3.57352e+06
         1.55   1.55185e+06   3.57355e+06
         1.56   1.55018e+06   3.57357e+06
         1.57     1.548e+06   3.57359e+06
         1.58   1.54594e+06   3.57362e+06
         1.59   1.54427e+06   3.57364e+06
          1.6   1.54228e+06   3.57366e+06
         1.61   1.54002e+06   3.57368e+06
         1.62   1.53832e+06    3.5737e+06
         1.63   1.53606e+06   3.57372e+06
         1.64   1.53406e+06   3.57374e+06
         1.65    1.5322e+06   3.57375e+06
         1.66   1.53038e+06   3.57376e+06
         1.67   1.52844e+06   3.57377e+06
         1.68   1.52673e+06   3.57377e+06
         1.69   1.52514e+06   3.57378e+06
          1.7   1.52284e+06   3.57378e+06
         1.71   1.52105e+06   3.57377e+06
         1.72   1.51935e+06   3.57377e+06
         1.73   1.51753e+06   3.57376e+06
         1.74   1.51559e+06   3.57375e+06
         1.75   1.51403e+06   3.57373e+06
         1.76   1.51203e+06   3.57371e+06
         1.77   1.51044e+06   3.57368e+06
         1.78   1.50865e+06   3.57365e+06
         1.79   1.50682e+06   3.57363e+06
          1.8    1.5051e+06   3.57361e+06
         1.81   1.50312e+06   3.57357e+06
         1.82   1.50135e+06   3.57352e+06
         1.83   1.49976e+06   3.57345e+06
         1.84   1.49809e+06   3.57338e+06
         1.85   1.49652e+06    3.5733e+06
         1.86   1.49468e+06    3.5732e+06
         1.87   1.49305e+06    3.5731e+06
         1.88   1.49127e+06   3.57298e+06
         1.89   1.48965e+06   3.57286e+06
          1.9   1.48796e+06   3.57271e+06
         1.91   1.48624e+06   3.57255e+06
         1.92   1.48511e+06   3.57239e+06
         1.93   1.48302e+06   3.57221e+06
         1.94   1.48139e+06   3.57195e+06
         1.95   1.48004e+06   3.57169e+06
         1.96   1.47836e+06   3.57144e+06
         1.97   1.47657e+06    3.5711e+06
         1.98   1.47522e+06   3.57077e+06
         1.99   1.47366e+06   3.57041e+06
            2   1.47185e+06   3.57003e+06
         2.01   1.47037e+06   3.56951e+06
         2.02   1.46885e+06     3.569e+06
         2.03   1.46716e+06   3.56846e+06
         2.04   1.46582e+06   3.56781e+06
         2.05   1.46471e+06   3.56715e+06
         2.06   1.46285e+06   3.56643e+06
         2.07   1.46139e+06   3.56547e+06
         2.08   1.45957e+06   3.56469e+06
         2.09   1.45819e+06   3.56354e+06
          2.1   1.45669e+06   3.56249e+06
         2.11   1.45542e+06   3.56118e+06
         2.12   1.45367e+06   3.55992e+06
         2.13   1.45218e+06   3.55832e+06
         2.14   1.45078e+06   3.55676e+06
         2.15   1.44963e+06   3.55473e+06
         2.16   1.44798e+06   3.55281e+06
         2.17   1.44633e+06   3.55067e+06
         2.18   1.44507e+06   3.54824e+06
         2.19   1.44359e+06     3.546e+06
          2.2   1.44217e+06   3.54275e+06
         2.21   1.44079e+06   3.53974e+06
         2.22   1.43963e+06   3.53673e+06
         2.23   1.43814e+06   3.53276e+06
