# Probe 0 (249.6 0 0)
# Probe 1 (116.5 0 0)
#       Probe             0             1
#        Time
            0        274.13        274.13
         0.01       275.794       275.725
         0.02       274.897       274.919
         0.03       274.293       274.592
         0.04       273.745       274.368
         0.05       273.555       274.204
         0.06       273.494       274.121
         0.07       273.392       274.074
         0.08        273.23       274.033
         0.09       272.864       273.982
          0.1       272.163       273.948
         0.11       271.133       273.925
         0.12       269.473       273.908
         0.13       267.749       273.893
         0.14        266.03       273.886
         0.15       264.716       273.883
         0.16       263.575       273.877
         0.17       262.561       273.871
         0.18       261.557       273.864
         0.19       260.998       273.856
          0.2       260.078        273.85
         0.21       259.465       273.842
         0.22       258.911       273.832
         0.23       258.399       273.826
         0.24       257.941       273.818
         0.25       257.528        273.81
         0.26        257.12       273.806
         0.27       256.706       273.802
         0.28       256.421       273.799
         0.29       256.064       273.797
          0.3       255.733       273.796
         0.31       255.443       273.795
         0.32       255.277       273.793
         0.33       254.988       273.792
         0.34        254.76       273.792
         0.35       254.578       273.791
         0.36       254.318       273.791
         0.37       254.113        273.79
         0.38        253.98        273.79
         0.39       253.742       273.789
          0.4       253.583       273.788
         0.41       253.453       273.788
         0.42       253.343       273.787
         0.43       253.122       273.786
         0.44       253.008       273.785
         0.45       252.854       273.784
         0.46       252.748       273.783
         0.47       252.577       273.782
         0.48       252.468       273.782
         0.49        252.36        273.78
          0.5       252.251        273.78
         0.51       252.134       273.779
         0.52       252.056       273.778
         0.53       251.936       273.777
         0.54       251.858       273.777
         0.55       251.732       273.777
         0.56       251.671       273.776
         0.57       251.548       273.776
         0.58       251.459       273.776
         0.59       251.345       273.776
          0.6       251.272       273.776
         0.61       251.172       273.775
         0.62       251.094       273.775
         0.63       251.029       273.776
         0.64       250.935       273.776
         0.65       250.829       273.776
         0.66       250.747       273.776
         0.67        250.67       273.776
         0.68       250.618       273.776
         0.69       250.515       273.777
          0.7       250.441       273.777
         0.71       250.391       273.777
         0.72       250.298       273.778
         0.73       250.211       273.778
         0.74       250.145       273.778
         0.75       250.068       273.779
         0.76       249.999       273.779
         0.77       249.955       273.779
         0.78       249.874        273.78
         0.79       249.794        273.78
          0.8       249.733        273.78
         0.81       249.644        273.78
         0.82       249.576        273.78
         0.83       249.508       273.781
         0.84        249.45       273.781
         0.85       249.386       273.781
         0.86       249.351       273.781
         0.87       249.264       273.781
         0.88       249.222       273.781
         0.89       249.157       273.781
          0.9        249.07       273.781
         0.91       249.024       273.781
         0.92        248.95       273.781
         0.93        248.91       273.781
         0.94       248.818       273.781
         0.95       248.787       273.781
         0.96       248.705       273.781
         0.97       248.659       273.781
         0.98       248.607       273.781
         0.99       248.538       273.781
            1       248.481       273.781
         1.01       248.432       273.781
         1.02       248.372       273.781
         1.03       248.334       273.781
         1.04       248.251       273.781
         1.05        248.22       273.781
         1.06       248.161       273.781
         1.07       248.093       273.781
         1.08       248.062        273.78
         1.09       248.007        273.78
          1.1       247.935        273.78
         1.11       247.883        273.78
         1.12       247.833        273.78
         1.13       247.786        273.78
         1.14       247.738        273.78
         1.15        247.68        273.78
         1.16       247.622        273.78
         1.17       247.596       273.779
         1.18       247.545       273.779
         1.19       247.485       273.779
          1.2       247.426       273.778
         1.21       247.389       273.778
         1.22       247.367       273.778
         1.23       247.286       273.777
         1.24       247.243       273.777
         1.25       247.201       273.776
         1.26       247.169       273.776
         1.27       247.118       273.775
         1.28       247.061       273.774
         1.29       247.029       273.774
          1.3        246.96       273.773
         1.31       246.925       273.772
         1.32        246.87       273.771
         1.33       246.844       273.771
         1.34       246.792        273.77
         1.35       246.737       273.769
         1.36       246.718       273.768
         1.37        246.66       273.767
         1.38       246.611       273.766
         1.39       246.568       273.766
          1.4       246.555       273.765
         1.41       246.496       273.764
         1.42       246.457       273.764
         1.43         246.4       273.763
         1.44       246.354       273.763
         1.45       246.321       273.763
         1.46       246.295       273.763
         1.47       246.239       273.763
         1.48       246.201       273.763
         1.49       246.171       273.763
          1.5       246.127       273.763
         1.51       246.095       273.763
         1.52        246.04       273.764
         1.53       246.015       273.764
         1.54       245.963       273.764
         1.55       245.925       273.764
         1.56       245.903       273.764
         1.57       245.848       273.765
         1.58       245.825       273.765
         1.59        245.78       273.765
          1.6       245.749       273.765
         1.61       245.693       273.766
         1.62        245.68       273.766
         1.63       245.618       273.766
         1.64       245.586       273.766
         1.65       245.546       273.766
         1.66       245.524       273.766
         1.67       245.492       273.767
         1.68       245.449       273.767
         1.69       245.419       273.767
          1.7       245.382       273.767
         1.71       245.332       273.767
         1.72       245.316       273.767
         1.73       245.273       273.767
         1.74       245.233       273.766
         1.75       245.207       273.766
         1.76       245.163       273.766
         1.77       245.145       273.766
         1.78       245.104       273.765
         1.79       245.074       273.765
          1.8       245.036       273.765
         1.81        244.99       273.764
         1.82       244.954       273.764
         1.83       244.938       273.763
         1.84       244.897       273.762
         1.85       244.866       273.762
         1.86       244.838       273.761
         1.87       244.796       273.759
         1.88       244.761       273.758
         1.89       244.729       273.757
          1.9       244.713       273.755
         1.91       244.662       273.754
         1.92       244.659       273.752
         1.93         244.6        273.75
         1.94       244.583       273.747
         1.95       244.555       273.744
         1.96       244.511       273.742
         1.97        244.48       273.738
         1.98       244.453       273.735
         1.99       244.421       273.731
            2       244.395       273.727
         2.01       244.364       273.721
         2.02        244.33       273.716
         2.03       244.293       273.711
         2.04       244.269       273.703
         2.05       244.266       273.696
         2.06        244.21        273.69
         2.07       244.189       273.678
         2.08       244.141       273.671
         2.09       244.114       273.657
          2.1       244.103       273.647
         2.11       244.073       273.633
         2.12       244.033        273.62
         2.13       243.998       273.603
         2.14       243.986       273.587
         2.15       243.964       273.564
         2.16        243.92       273.544
         2.17       243.884       273.522
         2.18       243.865       273.495
         2.19       243.826       273.474
          2.2       243.804       273.436
         2.21       243.776       273.403
         2.22       243.761       273.375
         2.23       243.727        273.33
