# Probe 0 (-17.029 0 0)
# Probe 1 (-240 0 0)
#       Probe             0             1
#        Time
            0           240        295.13
         0.01       271.241        289.48
         0.02       267.718       289.811
         0.03       267.638       289.977
         0.04        266.86       290.032
         0.05       266.375       289.977
         0.06       265.797       289.945
         0.07       265.279       290.089
         0.08       264.853       290.232
         0.09       264.389       290.358
          0.1       264.041       290.466
         0.11       263.718       290.556
         0.12       263.417       290.632
         0.13       263.144       290.695
         0.14       262.874       290.745
         0.15       262.651       290.774
         0.16       262.441        290.78
         0.17       262.236       290.755
         0.18       262.047       290.682
         0.19        261.87       290.551
          0.2       261.707       290.605
         0.21       261.546       290.655
         0.22         261.4       290.685
         0.23       261.268       290.698
         0.24       261.136       290.703
         0.25       261.002       290.701
         0.26       260.867       290.694
         0.27       260.742       290.681
         0.28       260.628       290.663
         0.29       260.511       290.638
          0.3       260.382       290.607
         0.31       260.238       290.567
         0.32       260.089       290.516
         0.33       259.956       290.449
         0.34       259.845       290.375
         0.35       259.762       290.325
         0.36       259.711       290.325
         0.37       259.678       290.358
         0.38        259.64         290.4
         0.39       259.579       290.438
          0.4       259.496       290.466
         0.41       259.402       290.481
         0.42       259.307       290.478
         0.43        259.22       290.457
         0.44        259.14       290.416
         0.45       259.065       290.366
         0.46       258.996       290.346
         0.47       258.932       290.366
         0.48       258.868         290.4
         0.49       258.803       290.432
          0.5       258.739       290.453
         0.51       258.676       290.456
         0.52       258.612       290.434
         0.53       258.547       290.371
         0.54       258.486       290.361
         0.55       258.425       290.439
         0.56       258.363        290.55
         0.57       258.301       290.653
         0.58       258.244       290.728
         0.59       258.192       290.768
          0.6       258.139       290.759
         0.61       258.084       290.702
         0.62       258.029       290.575
         0.63       257.975       290.596
         0.64       257.922       290.632
         0.65       257.868       290.661
         0.66       257.819       290.663
         0.67       257.773       290.615
         0.68       257.728         290.5
         0.69       257.681        290.49
          0.7       257.634       290.535
         0.71        257.59       290.611
         0.72       257.546       290.707
         0.73       257.499       290.805
         0.74       257.452       290.883
         0.75       257.408       290.934
         0.76       257.367       290.955
         0.77       257.326        290.94
         0.78       257.284       290.869
         0.79       257.244       290.785
          0.8       257.206       290.819
         0.81       257.171       290.845
         0.82       257.133       290.857
         0.83       257.094       290.853
         0.84       257.057       290.836
         0.85       257.022       290.807
         0.86       256.988       290.771
         0.87       256.952       290.734
         0.88       256.914       290.704
         0.89       256.878       290.683
          0.9       256.847       290.664
         0.91       256.816       290.643
         0.92       256.782       290.619
         0.93       256.747       290.592
         0.94       256.714       290.551
         0.95       256.684       290.471
         0.96       256.654        290.34
         0.97       256.621       290.401
         0.98       256.586       290.474
         0.99       256.553       290.551
            1       256.524       290.627
         1.01       256.497       290.701
         1.02       256.466       290.769
         1.03       256.433       290.831
         1.04       256.402       290.884
         1.05       256.375       290.924
         1.06       256.351       290.945
         1.07       256.326       290.929
         1.08       256.297       290.847
         1.09       256.268       290.829
          1.1       256.242       290.817
         1.11       256.221       290.752
         1.12       256.199       290.706
         1.13       256.172       290.684
         1.14       256.144       290.668
         1.15       256.118       290.686
         1.16       256.098       290.695
         1.17       256.081       290.649
         1.18        256.06       290.687
         1.19       256.034       290.768
          1.2       256.008       290.846
         1.21       255.986       290.902
         1.22       255.969       290.927
         1.23       255.954        290.94
         1.24       255.933        290.95
         1.25       255.908       290.958
         1.26       255.882       290.961
         1.27       255.861       290.956
         1.28       255.844        290.94
         1.29       255.828       290.911
          1.3       255.808       290.871
         1.31       255.784        290.82
         1.32        255.76       290.757
         1.33       255.742       290.677
         1.34       255.728       290.573
         1.35       255.715       290.475
         1.36       255.697       290.378
         1.37       255.674       290.265
         1.38       255.651       290.194
         1.39       255.632       290.223
          1.4       255.617       290.289
         1.41       255.603       290.376
         1.42       255.587       290.474
         1.43       255.568       290.575
         1.44       255.547       290.674
         1.45        255.53       290.766
         1.46       255.517       290.849
         1.47       255.505       290.919
         1.48       255.493       290.967
         1.49       255.478       291.007
          1.5       255.461       291.052
         1.51       255.445       291.084
         1.52       255.433       291.096
         1.53       255.424       291.089
         1.54       255.414       291.063
         1.55       255.401       291.021
         1.56       255.386       290.962
         1.57        255.37       290.884
         1.58       255.355       290.775
         1.59       255.343       290.694
          1.6       255.332       290.623
         1.61       255.319       290.599
         1.62       255.305       290.627
         1.63        255.29       290.651
         1.64       255.276       290.676
         1.65       255.266       290.712
         1.66       255.257       290.763
         1.67       255.249       290.826
         1.68       255.239        290.88
         1.69       255.226       290.915
          1.7       255.213       290.928
         1.71         255.2       290.918
         1.72        255.19       290.885
         1.73       255.183       290.823
         1.74       255.175       290.721
         1.75       255.165       290.565
         1.76       255.153       290.565
         1.77        255.14       290.579
         1.78       255.128       290.582
         1.79       255.119       290.574
          1.8       255.111       290.561
         1.81       255.104       290.546
         1.82       255.095       290.532
         1.83       255.084       290.519
         1.84       255.072        290.51
         1.85        255.06       290.501
         1.86       255.051       290.491
         1.87       255.043       290.477
         1.88       255.036        290.46
         1.89       255.028        290.44
          1.9       255.018       290.417
         1.91       255.007       290.375
         1.92       254.996       290.249
         1.93       254.986       290.303
         1.94       254.978        290.41
         1.95       254.972       290.525
         1.96       254.965        290.62
         1.97       254.957       290.688
         1.98       254.946       290.727
         1.99       254.935       290.743
            2       254.924       290.737
         2.01       254.914       290.714
         2.02       254.906       290.675
         2.03       254.899       290.623
         2.04       254.891       290.559
         2.05       254.882       290.481
         2.06       254.872       290.386
         2.07       254.862       290.265
         2.08       254.852       290.078
         2.09       254.845       290.038
          2.1       254.839       290.014
         2.11       254.834       289.989
         2.12       254.828       289.936
         2.13       254.821       289.841
         2.14       254.813       289.669
         2.15       254.805       289.591
         2.16       254.798       289.517
         2.17       254.793       289.436
         2.18       254.788       289.379
         2.19       254.783       289.353
          2.2       254.777       289.345
         2.21        254.77       289.345
         2.22       254.762       289.341
         2.23       254.755       289.325
         2.24       254.748        289.29
         2.25       254.743       289.232
         2.26       254.739       289.152
         2.27       254.735       289.038
         2.28       254.729       288.895
         2.29       254.722       288.722
          2.3       254.715       288.522
         2.31       254.707       288.301
         2.32       254.701       288.072
         2.33       254.695       287.842
         2.34        254.69       287.611
         2.35       254.686       287.375
         2.36       254.681       287.131
         2.37       254.675       286.878
         2.38       254.668       286.615
         2.39       254.662       286.339
          2.4       254.656       286.052
         2.41       254.652        285.75
         2.42       254.649       285.434
         2.43       254.647       285.101
         2.44       254.645        284.75
         2.45       254.642       284.379
         2.46       254.639       283.987
         2.47       254.635       283.572
         2.48       254.632       283.131
         2.49        254.63       282.663
          2.5       254.629       282.167
         2.51       254.629        281.64
         2.52        254.63       281.081
         2.53       254.629       280.487
         2.54       254.628       279.858
         2.55       254.626       279.193
         2.56       254.623       278.488
         2.57       254.621       277.727
         2.58        254.62       276.888
         2.59        254.62       275.997
          2.6        254.62        275.15
         2.61       254.619       275.158
         2.62       254.618       274.812
         2.63       254.615       275.658
         2.64       254.611       276.355
         2.65       254.607       276.874
         2.66       254.603       277.095
         2.67         254.6       277.111
         2.68       254.597       276.985
         2.69       254.595        276.76
          2.7       254.593       276.513
         2.71        254.59       276.295
         2.72       254.586       276.088
         2.73       254.582       275.868
         2.74       254.579       275.634
         2.75       254.576       275.398
         2.76       254.574       275.179
         2.77       254.573       274.991
         2.78       254.574       274.835
         2.79       254.575       274.706
          2.8       254.576       274.596
         2.81       254.577       274.494
         2.82       254.578        274.39
         2.83       254.579       274.276
         2.84       254.581       274.147
         2.85       254.583       274.005
         2.86       254.586       273.849
         2.87       254.588       273.681
         2.88        254.59       273.505
         2.89       254.593       273.322
          2.9       254.595       273.135
         2.91       254.598       272.948
         2.92       254.601       272.763
         2.93       254.604       272.582
         2.94       254.608        272.41
         2.95       254.613       272.246
         2.96       254.618       272.094
         2.97       254.624       271.955
         2.98       254.631       271.829
         2.99       254.641       271.716
            3       254.654       271.618
         3.01       254.669       271.535
         3.02       254.687       271.467
         3.03       254.706       271.414
         3.04       254.727       271.376
         3.05       254.748        271.35
         3.06       254.769       271.338
         3.07       254.793       271.338
         3.08       254.819       271.347
         3.09       254.849        271.36
          3.1       254.885       271.371
         3.11       254.925       271.354
         3.12       254.969       271.421
         3.13       255.014       271.533
         3.14        255.06       271.621
         3.15       255.105       271.697
         3.16       255.149       271.755
         3.17       255.192       271.804
         3.18       255.237       271.842
         3.19       255.285       271.871
          3.2       255.337       271.888
         3.21       255.391       271.892
         3.22       255.446       271.883
         3.23       255.499       271.858
         3.24       255.547       271.818
         3.25       255.589       271.764
         3.26       255.624       271.694
         3.27       255.653       271.612
         3.28       255.679       271.517
         3.29       255.704        271.41
          3.3       255.731       271.293
         3.31        255.76       271.167
         3.32       255.791       271.032
         3.33       255.825       270.892
         3.34       255.858        270.76
         3.35       255.889       270.631
         3.36       255.916       270.506
         3.37       255.938       270.381
         3.38       255.955       270.256
         3.39       255.969       270.133
          3.4        255.98       270.011
         3.41       255.992       269.885
         3.42       256.005       269.726
         3.43       256.021       269.682
         3.44        256.04       269.688
         3.45       256.062       269.676
         3.46       256.085       269.662
         3.47       256.107       269.648
         3.48       256.125       269.636
         3.49       256.137       269.627
          3.5       256.144       269.615
         3.51       256.144       269.604
         3.52        256.14       269.595
         3.53       256.134       269.587
         3.54       256.126        269.58
         3.55       256.118       269.573
         3.56       256.111       269.564
         3.57       256.107       269.553
         3.58       256.104       269.539
         3.59       256.102       269.522
          3.6       256.101         269.5
         3.61         256.1       269.473
         3.62       256.098       269.436
         3.63       256.094         269.4
         3.64       256.089        269.36
         3.65       256.084       269.313
         3.66       256.079       269.255
         3.67       256.076       269.174
         3.68       256.075       269.083
         3.69       256.078       269.115
          3.7       256.085       269.112
         3.71       256.098       269.097
         3.72       256.116       269.074
         3.73        256.14       269.043
         3.74       256.169       269.004
         3.75       256.202       268.958
         3.76       256.237       268.907
         3.77       256.275        268.86
         3.78       256.314       268.809
         3.79       256.353       268.754
          3.8       256.394       268.695
         3.81       256.435       268.633
         3.82       256.477        268.57
         3.83        256.52       268.506
         3.84       256.563       268.442
         3.85       256.603       268.378
         3.86       256.635       268.316
         3.87       256.653       268.254
         3.88       256.652       268.194
         3.89        256.63       268.135
          3.9       256.586       268.077
         3.91       256.524       268.018
         3.92       256.448       267.952
         3.93       256.362       267.873
         3.94       256.268       267.748
         3.95       256.169       267.765
         3.96       256.066        267.78
         3.97       255.962       267.763
         3.98       255.859       267.738
         3.99       255.757        267.71
            4       255.658        267.68
         4.01       255.564       267.647
         4.02       255.474       267.613
         4.03        255.39       267.577
         4.04       255.311       267.541
         4.05       255.237       267.504
         4.06       255.165       267.467
         4.07       255.095       267.429
         4.08       255.026       267.392
         4.09       254.955       267.356
          4.1       254.883        267.32
         4.11       254.808       267.285
         4.12       254.731       267.251
         4.13        254.65       267.218
         4.14       254.566       267.187
         4.15        254.48       267.156
         4.16        254.39       267.126
         4.17       254.298       267.097
         4.18       254.204       267.069
         4.19       254.109       267.041
          4.2       254.013       267.014
         4.21       253.916       266.986
         4.22        253.82       266.959
         4.23       253.724       266.935
         4.24        253.63       266.919
         4.25       253.539       266.904
         4.26       253.452       266.885
         4.27       253.369       266.885
         4.28       253.293       266.958
         4.29       253.221       266.996
          4.3       253.153       267.027
         4.31       253.089       267.041
         4.32       253.027       267.048
         4.33       252.965       267.051
         4.34       252.903       267.051
         4.35        252.84       267.048
         4.36       252.772       267.043
         4.37         252.7       267.036
         4.38        252.62       267.028
         4.39       252.532        267.02
          4.4       252.437       267.012
         4.41       252.333       267.005
         4.42       252.222       266.998
         4.43       252.104       266.993
         4.44        251.98       266.989
         4.45       251.849       266.985
         4.46       251.714       266.979
         4.47       251.575       266.971
         4.48       251.434       266.953
         4.49        251.29       266.905
          4.5       251.144       266.868
         4.51       250.996       266.869
         4.52       250.844       266.877
         4.53       250.687       266.898
         4.54       250.527       266.916
         4.55       250.361       266.928
         4.56       250.192       266.933
         4.57       250.018       266.933
         4.58       249.839       266.929
         4.59       249.654        266.92
          4.6       249.462       266.907
         4.61       249.264        266.89
         4.62       249.062        266.87
         4.63       248.864       266.846
         4.64       248.675       266.817
         4.65       248.498       266.785
         4.66       248.329       266.749
         4.67       248.167       266.711
         4.68       248.013       266.677
         4.69       247.863       266.641
          4.7       247.717       266.602
         4.71       247.575       266.647
         4.72       247.435       266.689
         4.73       247.298       266.696
         4.74       247.163       266.684
         4.75       247.031       266.674
         4.76       246.902       266.663
         4.77       246.776       266.648
         4.78       246.653        266.63
         4.79       246.532       266.608
          4.8       246.415       266.583
         4.81       246.302       266.555
         4.82       246.193       266.524
         4.83       246.088        266.49
         4.84       245.987       266.453
         4.85       245.889       266.413
         4.86       245.794       266.373
         4.87       245.701       266.345
         4.88       245.612       266.315
         4.89       245.525       266.281
          4.9       245.439       266.243
         4.91       245.354       266.202
         4.92        245.27       266.159
         4.93       245.187       266.115
         4.94       245.103       266.069
         4.95       245.019       266.022
         4.96       244.935       265.974
         4.97        244.85       265.925
         4.98       244.764       265.874
         4.99       244.678       265.821
            5       244.592       265.766
         5.01       244.505       265.708
         5.02       244.418       265.645
         5.03       244.331       265.576
         5.04       244.244       265.495
         5.05       244.158       265.376
         5.06       244.072       265.354
         5.07       243.988        265.34
         5.08       243.905       265.293
         5.09       243.823       265.239
          5.1       243.743       265.178
         5.11       243.666       265.112
         5.12        243.59        265.04
         5.13       243.517        264.96
         5.14       243.447        264.87
         5.15       243.379       264.764
         5.16       243.314       264.614
         5.17       243.251       264.574
         5.18       243.189       264.535
         5.19        243.13       264.487
          5.2       243.073       264.428
         5.21       243.018       264.357
         5.22       242.963       264.277
         5.23       242.909       264.187
         5.24       242.856       264.088
         5.25       242.802        263.98
         5.26       242.748       263.863
         5.27       242.694        263.74
         5.28       242.638       263.617
         5.29       242.582       263.489
          5.3       242.525       263.353
         5.31       242.466       263.211
         5.32       242.407       263.064
         5.33       242.346       262.911
         5.34       242.284       262.754
         5.35       242.222       262.594
         5.36       242.159        262.43
         5.37       242.095       262.262
         5.38       242.031       262.092
         5.39       241.966       261.919
          5.4       241.901       261.744
         5.41       241.836       261.565
         5.42        241.77       261.384
         5.43       241.705       261.201
         5.44        241.64       261.014
         5.45       241.575       260.824
         5.46        241.51       260.631
         5.47       241.446       260.434
         5.48       241.382       260.234
         5.49       241.319       260.029
          5.5       241.256        259.82
         5.51       241.194       259.606
         5.52       241.134       259.384
         5.53       241.074       259.147
         5.54       241.015       258.876
         5.55       240.957       258.601
         5.56       240.901       258.471
         5.57       240.846       258.286
         5.58       240.792       258.086
         5.59       240.739        257.88
          5.6       240.688       257.669
         5.61       240.637       257.455
         5.62       240.588       257.237
         5.63       240.539       257.016
         5.64       240.491        256.79
         5.65       240.443       256.559
         5.66       240.396       256.319
         5.67        240.35       256.057
         5.68       240.303       255.845
         5.69       240.257       255.674
          5.7       240.211       255.497
         5.71       240.165       255.322
         5.72       240.118       255.142
         5.73       240.071       254.957
         5.74       240.024       254.767
         5.75       239.976       254.576
         5.76       239.927       254.384
         5.77       239.878       254.197
         5.78       239.828       253.993
         5.79       239.778       253.779
          5.8       239.728       253.557
         5.81       239.677       253.312
         5.82       239.625       253.114
         5.83       239.574       252.998
         5.84       239.522       252.836
         5.85       239.471       252.666
         5.86       239.419       252.496
         5.87       239.367       252.325
         5.88       239.316       252.156
         5.89       239.265       251.988
          5.9       239.214       251.822
         5.91       239.164       251.657
         5.92       239.114       251.495
         5.93       239.065       251.334
         5.94       239.016       251.175
         5.95       238.969       251.019
         5.96       238.922       250.864
         5.97       238.876       250.712
         5.98       238.832       250.562
         5.99       238.789       250.414
            6       238.747       250.268
         6.01       238.706       250.125
         6.02       238.667       249.984
         6.03        238.63       249.845
         6.04       238.593       249.708
         6.05       238.559       249.573
         6.06       238.525        249.44
         6.07       238.493        249.31
         6.08       238.463       249.181
         6.09       238.434       249.054
          6.1       238.406       248.929
         6.11       238.379       248.807
         6.12       238.354       248.686
         6.13       238.329       248.567
         6.14       238.305       248.451
         6.15       238.282       248.336
         6.16        238.26       248.223
         6.17       238.238       248.112
         6.18       238.216       248.002
         6.19       238.194       247.895
          6.2       238.173       247.788
         6.21       238.151       247.683
         6.22       238.129       247.579
         6.23       238.107       247.475
         6.24       238.085       247.373
         6.25       238.062       247.271
         6.26       238.039        247.17
         6.27       238.016       247.068
         6.28       237.993       246.968
         6.29        237.97       246.867
          6.3       237.946       246.767
         6.31       237.923       246.667
         6.32       237.899       246.567
         6.33       237.875       246.467
         6.34       237.851       246.368
         6.35       237.828       246.268
         6.36       237.804        246.17
         6.37        237.78       246.071
         6.38       237.756       245.973
         6.39       237.732       245.876
          6.4       237.708       245.779
         6.41       237.684       245.683
         6.42        237.66       245.588
         6.43       237.636       245.493
         6.44       237.612         245.4
         6.45       237.587       245.307
         6.46       237.562       245.215
         6.47       237.537       245.124
         6.48       237.512       245.034
         6.49       237.487       244.945
          6.5       237.461       244.857
         6.51       237.434        244.77
         6.52       237.407       244.684
         6.53        237.38       244.598
         6.54       237.352       244.514
         6.55       237.323        244.43
         6.56       237.294       244.347
         6.57       237.264       244.266
         6.58       237.232       244.185
         6.59       237.201       244.105
          6.6       237.168       244.025
         6.61       237.135       243.947
         6.62         237.1       243.869
         6.63       237.065       243.793
         6.64       237.029       243.716
         6.65       236.992       243.641
         6.66       236.953       243.566
         6.67       236.914       243.492
         6.68       236.874       243.419
         6.69       236.832       243.346
          6.7       236.789       243.274
         6.71       236.746       243.202
         6.72       236.701       243.131
         6.73       236.655       243.061
         6.74       236.607       242.991
         6.75       236.558       242.922
         6.76       236.508       242.853
         6.77       236.457       242.785
         6.78       236.405       242.717
         6.79       236.351        242.65
          6.8       236.296       242.583
         6.81        236.24       242.516
         6.82       236.182       242.449
         6.83       236.123       242.383
         6.84       236.063       242.317
         6.85       236.002       242.252
         6.86        235.94       242.187
         6.87       235.877       242.122
         6.88       235.813       242.057
         6.89       235.748       241.992
          6.9       235.682       241.928
         6.91       235.615       241.864
         6.92       235.547       241.799
         6.93       235.478       241.735
         6.94       235.408        241.67
         6.95       235.338       241.605
         6.96       235.267       241.539
         6.97       235.195       241.474
         6.98       235.122       241.407
         6.99       235.049       241.341
            7       234.975       241.275
         7.01       234.901       241.209
         7.02       234.826       241.143
         7.03       234.751       241.076
         7.04       234.675       241.008
         7.05       234.599       240.937
         7.06       234.522       240.866
         7.07       234.445       240.799
         7.08       234.368       240.742
         7.09       234.289       240.693
          7.1       234.211       240.665