# Probe 0 (-45 0 0)
# Probe 1 (3.2 0 0)
#       Probe             0             1
#        Time
            0           300           300
         0.01           300           300
         0.02           300       285.414
         0.03           300       257.985
         0.04           300       252.339
         0.05           300       253.104
         0.06           300        253.45
         0.07           300        253.31
         0.08           300       253.309
         0.09           300       253.283
          0.1           300       253.204
         0.11           300       253.294
         0.12           300       253.678
         0.13           300       254.143
         0.14           300       254.349
         0.15           300       254.413
         0.16           300       254.464
         0.17           300       254.459
         0.18           300        254.45
         0.19           300       254.441
          0.2           300       254.458
         0.21           300       254.471
         0.22           300       254.452
         0.23           300       254.436
         0.24           300       254.441
         0.25           300       254.457
         0.26           300       254.467
         0.27           300        254.43
         0.28       299.999       254.442
         0.29        299.94       254.436
          0.3       299.439       254.456
         0.31        298.43       254.446
         0.32       297.279       254.422
         0.33       296.149       254.438
         0.34        295.07       254.445
         0.35       293.814       254.453
         0.36       291.933       254.427
         0.37        289.72       254.432
         0.38       287.484        254.44
         0.39       285.319       254.429
          0.4        283.25       254.455
         0.41       281.291       254.428
         0.42       279.466       254.447
         0.43       277.866        254.45
         0.44       276.885       254.426
         0.45       276.249       254.457
         0.46       275.451       254.448
         0.47       274.701        254.45
         0.48       274.113       254.438
         0.49        274.03       254.452
          0.5       274.286        254.46
         0.51       274.326       254.455
         0.52        274.33       254.424
         0.53        274.33       254.177
         0.54       274.315       253.052
         0.55       274.289        251.06
         0.56       274.283       248.737
         0.57       274.286       246.423
         0.58       274.288       244.244
         0.59       274.289       242.123
          0.6       274.289       240.113
         0.61        274.29       238.199
         0.62        274.29       236.309
         0.63        274.29       234.566
         0.64       274.289       232.869
         0.65       274.289       231.263
         0.66       274.289       229.678
         0.67        274.29        228.19
         0.68        274.29       226.796
         0.69        274.29       225.512
          0.7        274.29       224.385
         0.71        274.29       223.886
         0.72       274.291        224.32
         0.73        274.29         224.5
         0.74        274.29       224.492
         0.75       274.291       224.481
         0.76       274.286       224.431
         0.77       274.216       224.399
         0.78       273.975       224.381
         0.79       273.539       224.412
          0.8        272.95       224.392
         0.81       272.247        224.39
         0.82       271.414       224.405
         0.83       270.389       224.402
         0.84       269.178       224.422
         0.85       267.834       224.426
         0.86        266.41       224.426
         0.87       264.952       224.414
         0.88       263.498       224.412
         0.89       262.064       224.397
          0.9        260.66       224.421
         0.91       259.287       224.399
         0.92       257.947        224.39
         0.93       256.641       224.409
         0.94       255.364       224.403
         0.95       254.117       224.421
         0.96       252.897       224.426
         0.97       251.705       224.427
         0.98       250.544       224.416
         0.99       249.409       224.392
            1       248.307       224.145
