# Probe 0 (249.6 0 0)
# Probe 1 (116.5 0 0)
#       Probe             0             1
#        Time
            0        274.13        274.13
         0.01       273.145        273.18
         0.02       273.397       273.506
         0.03        273.52       273.644
         0.04       273.558       273.732
         0.05       273.549       273.802
         0.06       273.483       273.841
         0.07       273.383       273.859
         0.08       273.206       273.872
         0.09       272.838       273.882
          0.1       272.164       273.886
         0.11       270.999       273.888
         0.12         269.5       273.889
         0.13       267.801       273.889
         0.14       266.125       273.886
         0.15       264.653       273.882
         0.16       263.449       273.877
         0.17       262.405       273.871
         0.18       261.576       273.865
         0.19       260.708       273.857
          0.2       260.094       273.848
         0.21       259.455       273.839
         0.22       258.892       273.831
         0.23       258.381       273.823
         0.24       257.864       273.816
         0.25       257.463        273.81
         0.26       257.029       273.805
         0.27       256.686       273.802
         0.28       256.322       273.799
         0.29       256.033       273.797
          0.3        255.74       273.795
         0.31       255.462       273.794
         0.32       255.154       273.793
         0.33        254.93       273.793
         0.34       254.699       273.792
         0.35       254.479       273.791
         0.36       254.309       273.791
         0.37       254.094        273.79
         0.38       253.892        273.79
         0.39       253.747       273.789
          0.4       253.575       273.788
         0.41       253.415       273.788
         0.42       253.236       273.787
         0.43       253.116       273.786
         0.44       252.965       273.785
         0.45       252.848       273.784
         0.46       252.711       273.783
         0.47       252.587       273.782
         0.48       252.462       273.781
         0.49       252.357        273.78
          0.5       252.223       273.779
         0.51        252.12       273.779
         0.52       252.003       273.778
         0.53        251.91       273.777
         0.54       251.793       273.777
         0.55       251.701       273.777
         0.56       251.595       273.776
         0.57       251.512       273.776
         0.58       251.435       273.776
         0.59       251.345       273.776
          0.6       251.246       273.776
         0.61       251.158       273.775
         0.62       251.072       273.775
         0.63       250.983       273.775
         0.64       250.899       273.775
         0.65       250.827       273.776
         0.66       250.748       273.776
         0.67       250.669       273.776
         0.68       250.578       273.776
         0.69       250.506       273.776
          0.7       250.435       273.776
         0.71       250.345       273.776
         0.72       250.275       273.776
         0.73       250.208       273.776
         0.74       250.137       273.776
         0.75       250.068       273.776
         0.76       249.989       273.776
         0.77       249.924       273.777
         0.78       249.852       273.777
         0.79       249.783       273.777
          0.8       249.706       273.777
         0.81       249.645       273.777
         0.82       249.581       273.777
         0.83       249.514       273.777
         0.84       249.444       273.778
         0.85       249.378       273.778
         0.86       249.304       273.778
         0.87       249.255       273.778
         0.88       249.177       273.778
         0.89       249.129       273.778
          0.9       249.067       273.778
         0.91       248.991       273.779
         0.92       248.947       273.779
         0.93       248.873       273.779
         0.94       248.826       273.779
         0.95       248.747       273.779
         0.96       248.701       273.779
         0.97       248.634       273.779
         0.98       248.578       273.779
         0.99       248.528       273.779
            1        248.47       273.779
         1.01       248.404       273.779
         1.02       248.364       273.779
         1.03       248.295        273.78
         1.04       248.254        273.78
         1.05       248.197        273.78
         1.06       248.129        273.78
         1.07        248.09        273.78
         1.08       248.032        273.78
         1.09       247.976        273.78
          1.1       247.929        273.78
         1.11       247.874        273.78
         1.12       247.822        273.78
         1.13       247.776        273.78
         1.14       247.728        273.78
         1.15       247.667        273.78
         1.16       247.626        273.78
         1.17       247.579       273.779
         1.18       247.518       273.779
         1.19       247.471       273.779
          1.2       247.426       273.778
         1.21       247.376       273.778
         1.22       247.315       273.778
         1.23        247.28       273.777
         1.24       247.238       273.777
         1.25       247.193       273.776
         1.26       247.135       273.776
         1.27       247.091       273.775
         1.28       247.043       273.774
         1.29       247.005       273.774
          1.3       246.958       273.773
         1.31       246.919       273.772
         1.32        246.87       273.771
         1.33       246.825        273.77
         1.34       246.774        273.77
         1.35       246.736       273.769
         1.36       246.684       273.768
         1.37       246.647       273.767
         1.38       246.608       273.766
         1.39       246.562       273.765
          1.4       246.507       273.765
         1.41       246.484       273.764
         1.42       246.428       273.764
         1.43       246.397       273.763
         1.44       246.359       273.763
         1.45       246.311       273.763
         1.46       246.265       273.763
         1.47       246.232       273.763
         1.48       246.195       273.763
         1.49       246.149       273.763
          1.5       246.115       273.763
         1.51       246.066       273.763
         1.52       246.034       273.763
         1.53       245.986       273.763
         1.54       245.952       273.763
         1.55       245.924       273.763
         1.56       245.877       273.763
         1.57       245.839       273.763
         1.58       245.808       273.763
         1.59       245.758       273.763
          1.6       245.721       273.763
         1.61       245.689       273.764
         1.62        245.65       273.764
         1.63       245.621       273.764
         1.64       245.587       273.764
         1.65       245.546       273.764
         1.66       245.511       273.764
         1.67       245.479       273.764
         1.68       245.433       273.765
         1.69       245.392       273.765
          1.7       245.372       273.765
         1.71       245.333       273.765
         1.72       245.296       273.765
         1.73       245.258       273.765
         1.74       245.228       273.765
         1.75       245.188       273.765
         1.76       245.157       273.765
         1.77        245.12       273.765
         1.78       245.084       273.765
         1.79       245.055       273.765
          1.8       245.019       273.765
         1.81       244.992       273.764
         1.82       244.961       273.764
         1.83       244.925       273.763
         1.84        244.89       273.762
         1.85       244.853       273.762
         1.86       244.827       273.761
         1.87       244.791       273.759
         1.88       244.762       273.758
         1.89       244.727       273.757
          1.9         244.7       273.755
         1.91       244.668       273.754
         1.92       244.622       273.752
         1.93       244.606       273.749
         1.94       244.574       273.747
         1.95       244.533       273.745
         1.96       244.502       273.741
         1.97       244.479       273.738
         1.98        244.44       273.735
         1.99       244.407       273.731
            2       244.385       273.726
         2.01       244.353       273.721
         2.02        244.32       273.716
         2.03       244.292        273.71
         2.04       244.257       273.703
         2.05       244.217       273.696
         2.06       244.195       273.687
         2.07       244.166       273.679
         2.08       244.143       273.668
         2.09       244.109       273.658
          2.1       244.084       273.645
         2.11       244.044       273.632
         2.12       244.024       273.617
         2.13           244       273.602
         2.14        243.97       273.583
         2.15       243.928       273.565
         2.16       243.905       273.543
         2.17       243.884        273.52
         2.18       243.852       273.494
         2.19       243.825       273.465
          2.2         243.8       273.436
         2.21       243.769       273.402
         2.22       243.733       273.365
         2.23        243.71       273.327
