# Probe 0 (249.6 0 0)
# Probe 1 (116.5 0 0)
#       Probe             0             1
#        Time
            0             (0 0 0)             (0 0 0)
         0.01             (0.463392 0 0)             (-0.405406 0 0)
         0.02             (0.573626 0 0)             (-0.799304 0 0)
         0.03             (0.51323 0 0)             (-0.526969 0 0)
         0.04             (1.22614 0 0)             (0.144304 0 0)
         0.05             (1.27934 0 0)             (0.425602 0 0)
         0.06             (1.43782 0 0)             (0.412085 0 0)
         0.07             (1.87651 0 0)             (0.177551 0 0)
         0.08             (2.60191 0 0)             (-0.0577336 0 0)
         0.09             (3.87937 0 0)             (-0.0919802 0 0)
          0.1             (6.14425 0 0)             (-0.0742127 0 0)
         0.11             (9.76213 0 0)             (-0.0658833 0 0)
         0.12             (14.6945 0 0)             (-0.0671378 0 0)
         0.13             (20.2128 0 0)             (-0.0521687 0 0)
         0.14             (25.6722 0 0)             (-0.0225725 0 0)
         0.15             (30.4441 0 0)             (0.00333212 0 0)
         0.16             (34.4235 0 0)             (0.00858265 0 0)
         0.17             (37.8341 0 0)             (0.00512525 0 0)
         0.18             (40.8177 0 0)             (0.0101264 0 0)
         0.19             (43.5046 0 0)             (0.0209054 0 0)
          0.2             (45.8977 0 0)             (0.0284362 0 0)
         0.21             (48.0823 0 0)             (0.0318887 0 0)
         0.22             (50.0312 0 0)             (0.0341666 0 0)
         0.23             (51.879 0 0)             (0.0364343 0 0)
         0.24             (53.5114 0 0)             (0.0389355 0 0)
         0.25             (55.0219 0 0)             (0.0421583 0 0)
         0.26             (56.3992 0 0)             (0.0445896 0 0)
         0.27             (57.6974 0 0)             (0.0457876 0 0)
         0.28             (58.8709 0 0)             (0.0468586 0 0)
         0.29             (59.9875 0 0)             (0.0475417 0 0)
          0.3             (61.0229 0 0)             (0.0464063 0 0)
         0.31             (62.0187 0 0)             (0.0440654 0 0)
         0.32             (62.9306 0 0)             (0.0415745 0 0)
         0.33             (63.7811 0 0)             (0.0379791 0 0)
         0.34             (64.5672 0 0)             (0.0354969 0 0)
         0.35             (65.3137 0 0)             (0.035874 0 0)
         0.36             (66.0324 0 0)             (0.0371682 0 0)
         0.37             (66.6916 0 0)             (0.037195 0 0)
         0.38             (67.3313 0 0)             (0.0355072 0 0)
         0.39             (67.9352 0 0)             (0.0328821 0 0)
          0.4             (68.5003 0 0)             (0.0304485 0 0)
         0.41             (69.047 0 0)             (0.0287128 0 0)
         0.42             (69.5667 0 0)             (0.0275792 0 0)
         0.43             (70.0665 0 0)             (0.0266694 0 0)
         0.44             (70.546 0 0)             (0.0255494 0 0)
         0.45             (71.0074 0 0)             (0.0239878 0 0)
         0.46             (71.4581 0 0)             (0.0220522 0 0)
         0.47             (71.8889 0 0)             (0.0200596 0 0)
         0.48             (72.3257 0 0)             (0.0182717 0 0)
         0.49             (72.7404 0 0)             (0.0166488 0 0)
          0.5             (73.1293 0 0)             (0.0150072 0 0)
         0.51             (73.52 0 0)             (0.0130474 0 0)
         0.52             (73.9011 0 0)             (0.0107024 0 0)
         0.53             (74.2714 0 0)             (0.00806205 0 0)
         0.54             (74.6326 0 0)             (0.00515814 0 0)
         0.55             (74.989 0 0)             (0.00262448 0 0)
         0.56             (75.3386 0 0)             (0.000986956 0 0)
         0.57             (75.6814 0 0)             (-0.000220565 0 0)
         0.58             (76.0206 0 0)             (-0.00153889 0 0)
         0.59             (76.3491 0 0)             (-0.00304244 0 0)
          0.6             (76.6778 0 0)             (-0.00444197 0 0)
         0.61             (76.9994 0 0)             (-0.00541615 0 0)
         0.62             (77.3128 0 0)             (-0.00584659 0 0)
         0.63             (77.6289 0 0)             (-0.00583635 0 0)
         0.64             (77.9386 0 0)             (-0.0053205 0 0)
         0.65             (78.2404 0 0)             (-0.00410934 0 0)
         0.66             (78.544 0 0)             (-0.00268056 0 0)
         0.67             (78.8433 0 0)             (-0.00149275 0 0)
         0.68             (79.1357 0 0)             (-0.000630304 0 0)
         0.69             (79.4172 0 0)             (-8.1312e-05 0 0)
          0.7             (79.7078 0 0)             (0.000479041 0 0)
         0.71             (79.9905 0 0)             (0.00159446 0 0)
         0.72             (80.2691 0 0)             (0.00280091 0 0)
         0.73             (80.544 0 0)             (0.00341786 0 0)
         0.74             (80.8278 0 0)             (0.00369547 0 0)
         0.75             (81.0975 0 0)             (0.00429663 0 0)
         0.76             (81.3682 0 0)             (0.00527586 0 0)
         0.77             (81.6363 0 0)             (0.00616452 0 0)
         0.78             (81.8918 0 0)             (0.00671015 0 0)
         0.79             (82.1612 0 0)             (0.00709599 0 0)
          0.8             (82.42 0 0)             (0.00757503 0 0)
         0.81             (82.6797 0 0)             (0.0081642 0 0)
         0.82             (82.9353 0 0)             (0.00871112 0 0)
         0.83             (83.1918 0 0)             (0.00910927 0 0)
         0.84             (83.4457 0 0)             (0.00937764 0 0)
         0.85             (83.6959 0 0)             (0.00959705 0 0)
         0.86             (83.9453 0 0)             (0.00982885 0 0)
         0.87             (84.1963 0 0)             (0.010082 0 0)
         0.88             (84.4344 0 0)             (0.0103264 0 0)
         0.89             (84.6805 0 0)             (0.0105325 0 0)
          0.9             (84.9181 0 0)             (0.0106983 0 0)
         0.91             (85.1549 0 0)             (0.0108439 0 0)
         0.92             (85.3931 0 0)             (0.0109869 0 0)
         0.93             (85.6259 0 0)             (0.0111277 0 0)
         0.94             (85.8611 0 0)             (0.0112549 0 0)
         0.95             (86.0877 0 0)             (0.0113552 0 0)
         0.96             (86.3185 0 0)             (0.0114187 0 0)
         0.97             (86.5454 0 0)             (0.0114386 0 0)
         0.98             (86.768 0 0)             (0.0114181 0 0)
         0.99             (86.9959 0 0)             (0.0113731 0 0)
            1             (87.2151 0 0)             (0.0113179 0 0)
         1.01             (87.4343 0 0)             (0.0112554 0 0)
         1.02             (87.6557 0 0)             (0.0111872 0 0)
         1.03             (87.8701 0 0)             (0.0111374 0 0)
         1.04             (88.0797 0 0)             (0.0111578 0 0)
         1.05             (88.2993 0 0)             (0.0113108 0 0)
         1.06             (88.5144 0 0)             (0.0114824 0 0)
         1.07             (88.7265 0 0)             (0.0115734 0 0)
         1.08             (88.9298 0 0)             (0.0115347 0 0)
         1.09             (89.1325 0 0)             (0.0113643 0 0)
          1.1             (89.3398 0 0)             (0.0110759 0 0)
         1.11             (89.5462 0 0)             (0.0106627 0 0)
         1.12             (89.7524 0 0)             (0.00999667 0 0)
         1.13             (89.952 0 0)             (0.0090958 0 0)
         1.14             (90.1488 0 0)             (0.00810341 0 0)
         1.15             (90.3425 0 0)             (0.00713249 0 0)
         1.16             (90.5416 0 0)             (0.006205 0 0)
         1.17             (90.7384 0 0)             (0.005298 0 0)
         1.18             (90.938 0 0)             (0.0043163 0 0)
         1.19             (91.1339 0 0)             (0.00318416 0 0)
          1.2             (91.3129 0 0)             (0.00183522 0 0)
         1.21             (91.5015 0 0)             (0.000281179 0 0)
         1.22             (91.6911 0 0)             (-0.00145168 0 0)
         1.23             (91.8788 0 0)             (-0.00338043 0 0)
         1.24             (92.0787 0 0)             (-0.0054127 0 0)
         1.25             (92.2626 0 0)             (-0.00754183 0 0)
         1.26             (92.445 0 0)             (-0.00978643 0 0)
         1.27             (92.6206 0 0)             (-0.0121013 0 0)
         1.28             (92.8035 0 0)             (-0.0145452 0 0)
         1.29             (92.9831 0 0)             (-0.0171347 0 0)
          1.3             (93.1634 0 0)             (-0.019836 0 0)
         1.31             (93.3486 0 0)             (-0.022561 0 0)
         1.32             (93.5251 0 0)             (-0.0253604 0 0)
         1.33             (93.6987 0 0)             (-0.0281797 0 0)
         1.34             (93.868 0 0)             (-0.0309669 0 0)
         1.35             (94.0325 0 0)             (-0.033691 0 0)
         1.36             (94.2112 0 0)             (-0.0362904 0 0)
         1.37             (94.3836 0 0)             (-0.0387115 0 0)
         1.38             (94.5602 0 0)             (-0.0409304 0 0)
         1.39             (94.7373 0 0)             (-0.0428572 0 0)
          1.4             (94.904 0 0)             (-0.044419 0 0)
         1.41             (95.0691 0 0)             (-0.04552 0 0)
         1.42             (95.2339 0 0)             (-0.0460951 0 0)
         1.43             (95.3959 0 0)             (-0.0460524 0 0)
         1.44             (95.5583 0 0)             (-0.045397 0 0)
         1.45             (95.7272 0 0)             (-0.0440083 0 0)
         1.46             (95.8947 0 0)             (-0.0420541 0 0)
         1.47             (96.0586 0 0)             (-0.0398981 0 0)
         1.48             (96.2212 0 0)             (-0.0377312 0 0)
         1.49             (96.3826 0 0)             (-0.0355993 0 0)
          1.5             (96.5416 0 0)             (-0.0337511 0 0)
         1.51             (96.6933 0 0)             (-0.0320556 0 0)
         1.52             (96.8532 0 0)             (-0.0302525 0 0)
         1.53             (97.0071 0 0)             (-0.0283378 0 0)
         1.54             (97.1599 0 0)             (-0.0263792 0 0)
         1.55             (97.323 0 0)             (-0.0243976 0 0)
         1.56             (97.4806 0 0)             (-0.0223834 0 0)
         1.57             (97.6382 0 0)             (-0.0203244 0 0)
         1.58             (97.7944 0 0)             (-0.0182109 0 0)
         1.59             (97.948 0 0)             (-0.0160308 0 0)
          1.6             (98.0958 0 0)             (-0.0137727 0 0)
         1.61             (98.2442 0 0)             (-0.0114346 0 0)
         1.62             (98.3913 0 0)             (-0.00902243 0 0)
         1.63             (98.538 0 0)             (-0.00653909 0 0)
         1.64             (98.6855 0 0)             (-0.00398427 0 0)
         1.65             (98.8343 0 0)             (-0.00134732 0 0)
         1.66             (98.9853 0 0)             (0.0013623 0 0)
         1.67             (99.1375 0 0)             (0.00414774 0 0)
         1.68             (99.2853 0 0)             (0.00703082 0 0)
         1.69             (99.4334 0 0)             (0.0100059 0 0)
          1.7             (99.5775 0 0)             (0.0130563 0 0)
         1.71             (99.7182 0 0)             (0.0161549 0 0)
         1.72             (99.8645 0 0)             (0.0193363 0 0)
         1.73             (99.9988 0 0)             (0.0226353 0 0)
         1.74             (100.142 0 0)             (0.0260711 0 0)
         1.75             (100.276 0 0)             (0.0296071 0 0)
         1.76             (100.42 0 0)             (0.032884 0 0)
         1.77             (100.558 0 0)             (0.0361391 0 0)
         1.78             (100.698 0 0)             (0.0396434 0 0)
         1.79             (100.835 0 0)             (0.0434505 0 0)
          1.8             (100.974 0 0)             (0.0476009 0 0)
         1.81             (101.114 0 0)             (0.0521 0 0)
         1.82             (101.253 0 0)             (0.0570554 0 0)
         1.83             (101.392 0 0)             (0.0628301 0 0)
         1.84             (101.526 0 0)             (0.0689879 0 0)
         1.85             (101.659 0 0)             (0.0753359 0 0)
         1.86             (101.794 0 0)             (0.0818641 0 0)
         1.87             (101.925 0 0)             (0.0886728 0 0)
         1.88             (102.057 0 0)             (0.0959199 0 0)
         1.89             (102.185 0 0)             (0.103636 0 0)
          1.9             (102.314 0 0)             (0.111931 0 0)
         1.91             (102.443 0 0)             (0.120873 0 0)
         1.92             (102.575 0 0)             (0.130585 0 0)
         1.93             (102.705 0 0)             (0.141033 0 0)
         1.94             (102.831 0 0)             (0.15237 0 0)
         1.95             (102.958 0 0)             (0.164531 0 0)
         1.96             (103.084 0 0)             (0.177745 0 0)
         1.97             (103.213 0 0)             (0.192 0 0)
         1.98             (103.34 0 0)             (0.207455 0 0)
         1.99             (103.466 0 0)             (0.224251 0 0)
            2             (103.59 0 0)             (0.242393 0 0)
         2.01             (103.723 0 0)             (0.262196 0 0)
         2.02             (103.841 0 0)             (0.283843 0 0)
         2.03             (103.967 0 0)             (0.307322 0 0)
         2.04             (104.093 0 0)             (0.332837 0 0)
         2.05             (104.218 0 0)             (0.360641 0 0)
         2.06             (104.34 0 0)             (0.391157 0 0)
         2.07             (104.46 0 0)             (0.424256 0 0)
         2.08             (104.581 0 0)             (0.460475 0 0)
         2.09             (104.704 0 0)             (0.500085 0 0)
          2.1             (104.821 0 0)             (0.543192 0 0)
         2.11             (104.941 0 0)             (0.589955 0 0)
         2.12             (105.057 0 0)             (0.641655 0 0)
         2.13             (105.182 0 0)             (0.698073 0 0)
         2.14             (105.294 0 0)             (0.759242 0 0)
         2.15             (105.409 0 0)             (0.825711 0 0)
         2.16             (105.527 0 0)             (0.898655 0 0)
         2.17             (105.644 0 0)             (0.977232 0 0)
         2.18             (105.761 0 0)             (1.06277 0 0)
         2.19             (105.875 0 0)             (1.15594 0 0)
          2.2             (105.997 0 0)             (1.25741 0 0)
         2.21             (106.105 0 0)             (1.36736 0 0)
         2.22             (106.22 0 0)             (1.4851 0 0)
         2.23             (106.337 0 0)             (1.61294 0 0)
