# Probe 0 (-45 0 0)
# Probe 1 (3.2 0 0)
#       Probe             0             1
#        Time
            0             (0 0 0)             (0 0 0)
         0.01             (-1.03739e-12 0 0)             (0.000366909 0 0)
         0.02             (-4.26324e-14 0 0)             (84.1644 0 0)
         0.03             (-4.05009e-13 0 0)             (243.468 0 0)
         0.04             (2.98428e-13 0 0)             (278.32 0 0)
         0.05             (6.11067e-13 0 0)             (275.222 0 0)
         0.06             (-6.89226e-13 0 0)             (272.59 0 0)
         0.07             (-4.12115e-13 0 0)             (272.49 0 0)
         0.08             (7.10544e-14 0 0)             (272.66 0 0)
         0.09             (-1.20792e-13 0 0)             (272.898 0 0)
          0.1             (-4.97379e-14 0 0)             (273.138 0 0)
         0.11             (-8.66862e-13 0 0)             (272.933 0 0)
         0.12             (-5.82645e-13 0 0)             (271.323 0 0)
         0.13             (-5.18696e-13 0 0)             (269.502 0 0)
         0.14             (2.70006e-13 0 0)             (268.573 0 0)
         0.15             (5.18696e-13 0 0)             (268.225 0 0)
         0.16             (-1.63425e-13 0 0)             (268.302 0 0)
         0.17             (-8.2423e-13 0 0)             (268.194 0 0)
         0.18             (3.97904e-13 0 0)             (268.151 0 0)
         0.19             (1.06581e-13 0 0)             (268.134 0 0)
          0.2             (1.42108e-13 0 0)             (268.223 0 0)
         0.21             (-1.42109e-13 0 0)             (268.247 0 0)
         0.22             (1.0516e-12 0 0)             (268.133 0 0)
         0.23             (-3.12639e-13 0 0)             (268.083 0 0)
         0.24             (-3.2685e-13 0 0)             (268.134 0 0)
         0.25             (-5.32907e-13 0 0)             (268.217 0 0)
         0.26             (2.2591e-10 0 0)             (268.235 0 0)
         0.27             (3.8446e-06 0 0)             (268.063 0 0)
         0.28             (0.0048594 0 0)             (268.128 0 0)
         0.29             (0.436221 0 0)             (268.119 0 0)
          0.3             (4.03554 0 0)             (268.188 0 0)
         0.31             (10.9639 0 0)             (268.153 0 0)
         0.32             (18.4649 0 0)             (268.06 0 0)
         0.33             (25.513 0 0)             (268.149 0 0)
         0.34             (31.9048 0 0)             (268.157 0 0)
         0.35             (36.2451 0 0)             (268.185 0 0)
         0.36             (36.1803 0 0)             (268.069 0 0)
         0.37             (33.9909 0 0)             (268.122 0 0)
         0.38             (31.575 0 0)             (268.124 0 0)
         0.39             (29.3485 0 0)             (268.1 0 0)
          0.4             (27.3155 0 0)             (268.216 0 0)
         0.41             (25.3792 0 0)             (268.041 0 0)
         0.42             (23.3927 0 0)             (268.167 0 0)
         0.43             (20.869 0 0)             (268.16 0 0)
         0.44             (15.8545 0 0)             (268.067 0 0)
         0.45             (9.82534 0 0)             (268.222 0 0)
         0.46             (5.38867 0 0)             (268.113 0 0)
         0.47             (1.61619 0 0)             (268.192 0 0)
         0.48             (-1.31802 0 0)             (268.143 0 0)
         0.49             (-1.56691 0 0)             (268.19 0 0)
          0.5             (-0.0144647 0 0)             (268.209 0 0)
         0.51             (0.252381 0 0)             (268.176 0 0)
         0.52             (0.24508 0 0)             (268.101 0 0)
         0.53             (0.222326 0 0)             (267.903 0 0)
         0.54             (0.129509 0 0)             (267.739 0 0)
         0.55             (-0.000510161 0 0)             (268.107 0 0)
         0.56             (-0.0345714 0 0)             (268.731 0 0)
         0.57             (-0.0237721 0 0)             (269.364 0 0)
         0.58             (-0.0102303 0 0)             (270.035 0 0)
         0.59             (-0.00118136 0 0)             (270.395 0 0)
          0.6             (-0.000434037 0 0)             (270.714 0 0)
         0.61             (0.00258275 0 0)             (271.005 0 0)
         0.62             (0.00336332 0 0)             (270.964 0 0)
         0.63             (0.00121172 0 0)             (271.198 0 0)
         0.64             (-0.00038293 0 0)             (271.231 0 0)
         0.65             (-0.000138684 0 0)             (271.201 0 0)
         0.66             (0.00237007 0 0)             (271.111 0 0)
         0.67             (-0.00465335 0 0)             (271.059 0 0)
         0.68             (-0.00317073 0 0)             (270.997 0 0)
         0.69             (-0.000476914 0 0)             (271.088 0 0)
          0.7             (-0.002557 0 0)             (271.065 0 0)
         0.71             (-0.00674964 0 0)             (271.684 0 0)
         0.72             (-0.000676649 0 0)             (272 0 0)
         0.73             (0.0028066 0 0)             (271.724 0 0)
         0.74             (-0.000851236 0 0)             (271.605 0 0)
         0.75             (-0.00178567 0 0)             (271.529 0 0)
         0.76             (0.0242221 0 0)             (271.589 0 0)
         0.77             (0.377362 0 0)             (271.611 0 0)
         0.78             (1.57553 0 0)             (271.492 0 0)
         0.79             (3.753 0 0)             (271.673 0 0)
          0.8             (6.70058 0 0)             (271.528 0 0)
         0.81             (10.1165 0 0)             (271.56 0 0)
         0.82             (13.3852 0 0)             (271.637 0 0)
         0.83             (15.8124 0 0)             (271.573 0 0)
         0.84             (17.2499 0 0)             (271.665 0 0)
         0.85             (17.8822 0 0)             (271.71 0 0)
         0.86             (17.9417 0 0)             (271.597 0 0)
         0.87             (17.6762 0 0)             (271.648 0 0)
         0.88             (17.2558 0 0)             (271.623 0 0)
         0.89             (16.782 0 0)             (271.492 0 0)
          0.9             (16.3092 0 0)             (271.683 0 0)
         0.91             (15.8614 0 0)             (271.518 0 0)
         0.92             (15.4349 0 0)             (271.545 0 0)
         0.93             (15.0292 0 0)             (271.637 0 0)
         0.94             (14.6544 0 0)             (271.58 0 0)
         0.95             (14.2956 0 0)             (271.676 0 0)
         0.96             (13.9465 0 0)             (271.715 0 0)
         0.97             (13.6105 0 0)             (271.637 0 0)
         0.98             (13.2827 0 0)             (271.663 0 0)
         0.99             (12.9461 0 0)             (271.587 0 0)
            1             (12.5878 0 0)             (271.298 0 0)
