# Probe 0 (-17.029 0 0)
# Probe 1 (-240 0 0)
#       Probe             0             1
#        Time
            0             (0 0 0)             (0 0 0)
         0.01             (73.6159 0 0)             (-0.281143 0 0)
         0.02             (66.179 0 0)             (-0.379336 0 0)
         0.03             (69.1693 0 0)             (-0.407709 0 0)
         0.04             (70.881 0 0)             (-0.399418 0 0)
         0.05             (71.3797 0 0)             (-0.366187 0 0)
         0.06             (72.1342 0 0)             (-0.315459 0 0)
         0.07             (72.7803 0 0)             (-0.222986 0 0)
         0.08             (73.7646 0 0)             (-0.112441 0 0)
         0.09             (74.4458 0 0)             (0.00725279 0 0)
          0.1             (75.4188 0 0)             (0.132569 0 0)
         0.11             (76.2622 0 0)             (0.259741 0 0)
         0.12             (76.9329 0 0)             (0.385711 0 0)
         0.13             (77.6078 0 0)             (0.510379 0 0)
         0.14             (78.1918 0 0)             (0.627398 0 0)
         0.15             (78.8477 0 0)             (0.717834 0 0)
         0.16             (79.4505 0 0)             (0.774828 0 0)
         0.17             (79.9529 0 0)             (0.793964 0 0)
         0.18             (80.449 0 0)             (0.771448 0 0)
         0.19             (80.9348 0 0)             (0.704573 0 0)
          0.2             (81.4163 0 0)             (0.602264 0 0)
         0.21             (81.8411 0 0)             (0.497097 0 0)
         0.22             (82.2602 0 0)             (0.413934 0 0)
         0.23             (82.6943 0 0)             (0.341936 0 0)
         0.24             (83.081 0 0)             (0.274224 0 0)
         0.25             (83.4198 0 0)             (0.210377 0 0)
         0.26             (83.7219 0 0)             (0.151345 0 0)
         0.27             (84.0337 0 0)             (0.0984901 0 0)
         0.28             (84.3682 0 0)             (0.0532056 0 0)
         0.29             (84.6663 0 0)             (0.016699 0 0)
          0.3             (84.8939 0 0)             (-0.0102321 0 0)
         0.31             (85.0443 0 0)             (-0.0274079 0 0)
         0.32             (85.1632 0 0)             (-0.034367 0 0)
         0.33             (85.3326 0 0)             (-0.031652 0 0)
         0.34             (85.5807 0 0)             (-0.0280479 0 0)
         0.35             (85.9119 0 0)             (-0.0368655 0 0)
         0.36             (86.3348 0 0)             (-0.0654671 0 0)
         0.37             (86.7968 0 0)             (-0.106385 0 0)
         0.38             (87.1972 0 0)             (-0.148576 0 0)
         0.39             (87.483 0 0)             (-0.185754 0 0)
          0.4             (87.6739 0 0)             (-0.214741 0 0)
         0.41             (87.818 0 0)             (-0.233686 0 0)
         0.42             (87.9621 0 0)             (-0.241826 0 0)
         0.43             (88.1318 0 0)             (-0.24013 0 0)
         0.44             (88.3174 0 0)             (-0.232427 0 0)
         0.45             (88.5026 0 0)             (-0.226616 0 0)
         0.46             (88.6937 0 0)             (-0.233602 0 0)
         0.47             (88.8965 0 0)             (-0.251951 0 0)
         0.48             (89.0979 0 0)             (-0.270955 0 0)
         0.49             (89.2945 0 0)             (-0.284992 0 0)
          0.5             (89.5044 0 0)             (-0.291828 0 0)
         0.51             (89.7349 0 0)             (-0.290865 0 0)
         0.52             (89.9709 0 0)             (-0.282711 0 0)
         0.53             (90.2011 0 0)             (-0.27094 0 0)
         0.54             (90.4225 0 0)             (-0.254063 0 0)
         0.55             (90.6203 0 0)             (-0.218692 0 0)
         0.56             (90.7801 0 0)             (-0.161262 0 0)
         0.57             (90.918 0 0)             (-0.103535 0 0)
         0.58             (91.0686 0 0)             (-0.0609301 0 0)
         0.59             (91.244 0 0)             (-0.0395869 0 0)
          0.6             (91.4291 0 0)             (-0.0453832 0 0)
         0.61             (91.6116 0 0)             (-0.0631013 0 0)
         0.62             (91.7902 0 0)             (-0.0875222 0 0)
         0.63             (91.9578 0 0)             (-0.120554 0 0)
         0.64             (92.1025 0 0)             (-0.160235 0 0)
         0.65             (92.2304 0 0)             (-0.189249 0 0)
         0.66             (92.3654 0 0)             (-0.196756 0 0)
         0.67             (92.5207 0 0)             (-0.178433 0 0)
         0.68             (92.6878 0 0)             (-0.158036 0 0)
         0.69             (92.8572 0 0)             (-0.139639 0 0)
          0.7             (93.0328 0 0)             (-0.111298 0 0)
         0.71             (93.216 0 0)             (-0.0685287 0 0)
         0.72             (93.3903 0 0)             (-0.0077146 0 0)
         0.73             (93.5363 0 0)             (0.0679749 0 0)
         0.74             (93.6555 0 0)             (0.133679 0 0)
         0.75             (93.7663 0 0)             (0.182218 0 0)
         0.76             (93.8799 0 0)             (0.209948 0 0)
         0.77             (93.9929 0 0)             (0.213792 0 0)
         0.78             (94.1057 0 0)             (0.18983 0 0)
         0.79             (94.2313 0 0)             (0.133337 0 0)
          0.8             (94.3799 0 0)             (0.0674276 0 0)
         0.81             (94.5417 0 0)             (0.00993285 0 0)
         0.82             (94.6968 0 0)             (-0.0367899 0 0)
         0.83             (94.8381 0 0)             (-0.0734409 0 0)
         0.84             (94.9737 0 0)             (-0.101355 0 0)
         0.85             (95.1072 0 0)             (-0.122678 0 0)
         0.86             (95.2269 0 0)             (-0.140678 0 0)
         0.87             (95.3219 0 0)             (-0.159839 0 0)
         0.88             (95.4018 0 0)             (-0.185322 0 0)
         0.89             (95.4897 0 0)             (-0.218782 0 0)
          0.9             (95.5969 0 0)             (-0.25467 0 0)
         0.91             (95.7133 0 0)             (-0.289196 0 0)
         0.92             (95.825 0 0)             (-0.322869 0 0)
         0.93             (95.9342 0 0)             (-0.355084 0 0)
         0.94             (96.0547 0 0)             (-0.372674 0 0)
         0.95             (96.1893 0 0)             (-0.360194 0 0)
         0.96             (96.3218 0 0)             (-0.304663 0 0)
         0.97             (96.4354 0 0)             (-0.231873 0 0)
         0.98             (96.5325 0 0)             (-0.160903 0 0)
         0.99             (96.6296 0 0)             (-0.094265 0 0)
            1             (96.7344 0 0)             (-0.0307283 0 0)
         1.01             (96.835 0 0)             (0.0293919 0 0)
         1.02             (96.9158 0 0)             (0.0837365 0 0)
         1.03             (96.9796 0 0)             (0.129657 0 0)
         1.04             (97.0466 0 0)             (0.16492 0 0)
         1.05             (97.1308 0 0)             (0.187522 0 0)
         1.06             (97.2238 0 0)             (0.19476 0 0)
         1.07             (97.3059 0 0)             (0.179192 0 0)
         1.08             (97.3713 0 0)             (0.155246 0 0)
         1.09             (97.4358 0 0)             (0.138056 0 0)
          1.1             (97.5183 0 0)             (0.134987 0 0)
         1.11             (97.6173 0 0)             (0.145761 0 0)
         1.12             (97.7127 0 0)             (0.153405 0 0)
         1.13             (97.7893 0 0)             (0.156544 0 0)
         1.14             (97.8555 0 0)             (0.159754 0 0)
         1.15             (97.9337 0 0)             (0.170549 0 0)
         1.16             (98.0345 0 0)             (0.173677 0 0)
         1.17             (98.1435 0 0)             (0.163538 0 0)
         1.18             (98.2366 0 0)             (0.138142 0 0)
         1.19             (98.3063 0 0)             (0.102486 0 0)
          1.2             (98.3703 0 0)             (0.0659677 0 0)
         1.21             (98.4515 0 0)             (0.037945 0 0)
         1.22             (98.5529 0 0)             (0.0234069 0 0)
         1.23             (98.654 0 0)             (0.00362421 0 0)
         1.24             (98.7323 0 0)             (-0.025426 0 0)
         1.25             (98.7869 0 0)             (-0.0635577 0 0)
         1.26             (98.839 0 0)             (-0.108959 0 0)
         1.27             (98.9092 0 0)             (-0.157483 0 0)
         1.28             (98.9974 0 0)             (-0.205013 0 0)
         1.29             (99.0835 0 0)             (-0.248209 0 0)
          1.3             (99.1495 0 0)             (-0.284451 0 0)
         1.31             (99.1978 0 0)             (-0.311633 0 0)
         1.32             (99.2482 0 0)             (-0.327844 0 0)
         1.33             (99.3176 0 0)             (-0.330212 0 0)
         1.34             (99.4034 0 0)             (-0.320985 0 0)
         1.35             (99.4858 0 0)             (-0.318527 0 0)
         1.36             (99.5472 0 0)             (-0.314262 0 0)
         1.37             (99.5882 0 0)             (-0.306024 0 0)
         1.38             (99.6266 0 0)             (-0.29328 0 0)
         1.39             (99.6797 0 0)             (-0.276193 0 0)
          1.4             (99.7493 0 0)             (-0.256825 0 0)
         1.41             (99.8216 0 0)             (-0.235802 0 0)
         1.42             (99.8808 0 0)             (-0.213869 0 0)
         1.43             (99.924 0 0)             (-0.192191 0 0)
         1.44             (99.9628 0 0)             (-0.171758 0 0)
         1.45             (100.012 0 0)             (-0.153311 0 0)
         1.46             (100.076 0 0)             (-0.13763 0 0)
         1.47             (100.146 0 0)             (-0.126017 0 0)
         1.48             (100.208 0 0)             (-0.123109 0 0)
         1.49             (100.254 0 0)             (-0.11191 0 0)
          1.5             (100.293 0 0)             (-0.0911415 0 0)
         1.51             (100.336 0 0)             (-0.0743891 0 0)
         1.52             (100.391 0 0)             (-0.0634226 0 0)
         1.53             (100.454 0 0)             (-0.0573428 0 0)
         1.54             (100.513 0 0)             (-0.0549153 0 0)
         1.55             (100.559 0 0)             (-0.0551292 0 0)
         1.56             (100.593 0 0)             (-0.057338 0 0)
         1.57             (100.624 0 0)             (-0.0615237 0 0)
         1.58             (100.662 0 0)             (-0.067603 0 0)
         1.59             (100.71 0 0)             (-0.0730405 0 0)
          1.6             (100.761 0 0)             (-0.0721849 0 0)
         1.61             (100.806 0 0)             (-0.0552759 0 0)
         1.62             (100.841 0 0)             (-0.0376088 0 0)
         1.63             (100.873 0 0)             (-0.025611 0 0)
         1.64             (100.911 0 0)             (-0.0122113 0 0)
         1.65             (100.962 0 0)             (0.0105271 0 0)
         1.66             (101.023 0 0)             (0.0471568 0 0)
         1.67             (101.086 0 0)             (0.100975 0 0)
         1.68             (101.138 0 0)             (0.157571 0 0)
         1.69             (101.179 0 0)             (0.208058 0 0)
          1.7             (101.215 0 0)             (0.248799 0 0)
         1.71             (101.254 0 0)             (0.277574 0 0)
         1.72             (101.303 0 0)             (0.292927 0 0)
         1.73             (101.358 0 0)             (0.293731 0 0)
         1.74             (101.412 0 0)             (0.278414 0 0)
         1.75             (101.456 0 0)             (0.246768 0 0)
         1.76             (101.491 0 0)             (0.202202 0 0)
         1.77             (101.522 0 0)             (0.155909 0 0)
         1.78             (101.558 0 0)             (0.123395 0 0)
         1.79             (101.603 0 0)             (0.0980563 0 0)
          1.8             (101.656 0 0)             (0.0742525 0 0)
         1.81             (101.708 0 0)             (0.0505198 0 0)
         1.82             (101.753 0 0)             (0.025909 0 0)
         1.83             (101.787 0 0)             (-0.000207594 0 0)
         1.84             (101.816 0 0)             (-0.0276734 0 0)
         1.85             (101.846 0 0)             (-0.0551373 0 0)
         1.86             (101.882 0 0)             (-0.0806561 0 0)
         1.87             (101.923 0 0)             (-0.102977 0 0)
         1.88             (101.964 0 0)             (-0.122092 0 0)
         1.89             (101.998 0 0)             (-0.138602 0 0)
          1.9             (102.022 0 0)             (-0.151401 0 0)
         1.91             (102.037 0 0)             (-0.150226 0 0)
         1.92             (102.051 0 0)             (-0.120696 0 0)
         1.93             (102.069 0 0)             (-0.052912 0 0)
         1.94             (102.094 0 0)             (0.0455763 0 0)
         1.95             (102.121 0 0)             (0.17263 0 0)
         1.96             (102.147 0 0)             (0.300964 0 0)
         1.97             (102.165 0 0)             (0.417167 0 0)
         1.98             (102.176 0 0)             (0.517098 0 0)
         1.99             (102.184 0 0)             (0.599763 0 0)
            2             (102.195 0 0)             (0.665905 0 0)
         2.01             (102.21 0 0)             (0.716811 0 0)
         2.02             (102.231 0 0)             (0.753973 0 0)
         2.03             (102.253 0 0)             (0.778919 0 0)
         2.04             (102.271 0 0)             (0.793111 0 0)
         2.05             (102.284 0 0)             (0.797841 0 0)
         2.06             (102.293 0 0)             (0.794088 0 0)
         2.07             (102.302 0 0)             (0.782431 0 0)
         2.08             (102.316 0 0)             (0.763409 0 0)
         2.09             (102.336 0 0)             (0.741267 0 0)
          2.1             (102.361 0 0)             (0.716168 0 0)
         2.11             (102.385 0 0)             (0.698006 0 0)
         2.12             (102.406 0 0)             (0.694482 0 0)
         2.13             (102.423 0 0)             (0.702775 0 0)
         2.14             (102.436 0 0)             (0.718606 0 0)
         2.15             (102.45 0 0)             (0.734583 0 0)
         2.16             (102.47 0 0)             (0.740462 0 0)
         2.17             (102.494 0 0)             (0.744693 0 0)
         2.18             (102.522 0 0)             (0.758379 0 0)
         2.19             (102.548 0 0)             (0.785399 0 0)
          2.2             (102.569 0 0)             (0.82774 0 0)
         2.21             (102.585 0 0)             (0.8879 0 0)
         2.22             (102.598 0 0)             (0.96845 0 0)
         2.23             (102.613 0 0)             (1.07052 0 0)
         2.24             (102.633 0 0)             (1.19426 0 0)
         2.25             (102.659 0 0)             (1.33889 0 0)
         2.26             (102.69 0 0)             (1.5029 0 0)
         2.27             (102.722 0 0)             (1.68396 0 0)
         2.28             (102.75 0 0)             (1.87793 0 0)
         2.29             (102.774 0 0)             (2.07877 0 0)
          2.3             (102.792 0 0)             (2.28227 0 0)
         2.31             (102.81 0 0)             (2.49469 0 0)
         2.32             (102.829 0 0)             (2.73646 0 0)
         2.33             (102.852 0 0)             (3.02281 0 0)
         2.34             (102.877 0 0)             (3.3573 0 0)
         2.35             (102.9 0 0)             (3.73491 0 0)
         2.36             (102.92 0 0)             (4.14705 0 0)
         2.37             (102.936 0 0)             (4.58386 0 0)
         2.38             (102.949 0 0)             (5.03548 0 0)
         2.39             (102.963 0 0)             (5.49283 0 0)
          2.4             (102.982 0 0)             (5.94812 0 0)
         2.41             (103.005 0 0)             (6.3947 0 0)
         2.42             (103.032 0 0)             (6.82703 0 0)
         2.43             (103.061 0 0)             (7.24063 0 0)
         2.44             (103.088 0 0)             (7.63201 0 0)
         2.45             (103.111 0 0)             (7.99863 0 0)
         2.46             (103.132 0 0)             (8.33878 0 0)
         2.47             (103.151 0 0)             (8.65147 0 0)
         2.48             (103.173 0 0)             (8.93649 0 0)
         2.49             (103.198 0 0)             (9.19474 0 0)
          2.5             (103.228 0 0)             (9.42768 0 0)
         2.51             (103.26 0 0)             (9.63743 0 0)
         2.52             (103.291 0 0)             (9.82731 0 0)
         2.53             (103.319 0 0)             (10.0026 0 0)
         2.54             (103.342 0 0)             (10.1745 0 0)
         2.55             (103.361 0 0)             (10.3578 0 0)
         2.56             (103.379 0 0)             (10.5719 0 0)
         2.57             (103.399 0 0)             (10.8197 0 0)
         2.58             (103.422 0 0)             (11.1091 0 0)
         2.59             (103.447 0 0)             (11.3403 0 0)
          2.6             (103.472 0 0)             (11.505 0 0)
         2.61             (103.495 0 0)             (10.8823 0 0)
         2.62             (103.513 0 0)             (10.1428 0 0)
         2.63             (103.525 0 0)             (9.64318 0 0)
         2.64             (103.533 0 0)             (9.31129 0 0)
         2.65             (103.541 0 0)             (8.96616 0 0)
         2.66             (103.55 0 0)             (8.69599 0 0)
         2.67             (103.563 0 0)             (8.48459 0 0)
         2.68             (103.579 0 0)             (8.32377 0 0)
         2.69             (103.595 0 0)             (8.20148 0 0)
          2.7             (103.61 0 0)             (8.09113 0 0)
         2.71             (103.622 0 0)             (7.98052 0 0)
         2.72             (103.632 0 0)             (7.8745 0 0)
         2.73             (103.64 0 0)             (7.77911 0 0)
         2.74             (103.649 0 0)             (7.69462 0 0)
         2.75             (103.661 0 0)             (7.61817 0 0)
         2.76             (103.677 0 0)             (7.54618 0 0)
         2.77             (103.698 0 0)             (7.47618 0 0)
         2.78             (103.722 0 0)             (7.40627 0 0)
         2.79             (103.745 0 0)             (7.33374 0 0)
          2.8             (103.768 0 0)             (7.25488 0 0)
         2.81             (103.79 0 0)             (7.16531 0 0)
         2.82             (103.81 0 0)             (7.0601 0 0)
         2.83             (103.83 0 0)             (6.93393 0 0)
         2.84             (103.85 0 0)             (6.78149 0 0)
         2.85             (103.872 0 0)             (6.59759 0 0)
         2.86             (103.895 0 0)             (6.37788 0 0)
         2.87             (103.918 0 0)             (6.11932 0 0)
         2.88             (103.94 0 0)             (5.82058 0 0)
         2.89             (103.961 0 0)             (5.48208 0 0)
          2.9             (103.982 0 0)             (5.106 0 0)
         2.91             (104.002 0 0)             (4.69595 0 0)
         2.92             (104.023 0 0)             (4.25679 0 0)
         2.93             (104.043 0 0)             (3.79434 0 0)
         2.94             (104.063 0 0)             (3.31681 0 0)
         2.95             (104.081 0 0)             (2.83254 0 0)
         2.96             (104.101 0 0)             (2.34775 0 0)
         2.97             (104.123 0 0)             (1.86835 0 0)
         2.98             (104.151 0 0)             (1.40021 0 0)
         2.99             (104.189 0 0)             (0.948593 0 0)
            3             (104.237 0 0)             (0.518648 0 0)
         3.01             (104.294 0 0)             (0.114955 0 0)
         3.02             (104.36 0 0)             (-0.258321 0 0)
         3.03             (104.429 0 0)             (-0.597629 0 0)
         3.04             (104.499 0 0)             (-0.899932 0 0)
         3.05             (104.569 0 0)             (-1.16252 0 0)
         3.06             (104.637 0 0)             (-1.38322 0 0)
         3.07             (104.709 0 0)             (-1.55969 0 0)
         3.08             (104.789 0 0)             (-1.69084 0 0)
         3.09             (104.88 0 0)             (-1.77613 0 0)
          3.1             (104.986 0 0)             (-1.8154 0 0)
         3.11             (105.105 0 0)             (-1.80802 0 0)
         3.12             (105.232 0 0)             (-1.75141 0 0)
         3.13             (105.359 0 0)             (-1.66233 0 0)
         3.14             (105.48 0 0)             (-1.53452 0 0)
         3.15             (105.593 0 0)             (-1.35861 0 0)
         3.16             (105.696 0 0)             (-1.16371 0 0)
         3.17             (105.795 0 0)             (-0.951736 0 0)
         3.18             (105.896 0 0)             (-0.725664 0 0)
         3.19             (106.004 0 0)             (-0.48788 0 0)
          3.2             (106.121 0 0)             (-0.240844 0 0)
         3.21             (106.243 0 0)             (0.0130406 0 0)
         3.22             (106.362 0 0)             (0.270936 0 0)
         3.23             (106.468 0 0)             (0.52976 0 0)
         3.24             (106.552 0 0)             (0.786343 0 0)
         3.25             (106.609 0 0)             (1.03788 0 0)
         3.26             (106.641 0 0)             (1.28149 0 0)
         3.27             (106.652 0 0)             (1.51446 0 0)
         3.28             (106.652 0 0)             (1.7342 0 0)
         3.29             (106.651 0 0)             (1.93813 0 0)
          3.3             (106.656 0 0)             (2.1235 0 0)
         3.31             (106.67 0 0)             (2.28705 0 0)
         3.32             (106.694 0 0)             (2.42335 0 0)
         3.33             (106.723 0 0)             (2.53494 0 0)
         3.34             (106.748 0 0)             (2.64408 0 0)
         3.35             (106.764 0 0)             (2.75358 0 0)
         3.36             (106.765 0 0)             (2.86627 0 0)
         3.37             (106.752 0 0)             (2.97553 0 0)
         3.38             (106.73 0 0)             (3.06401 0 0)
         3.39             (106.706 0 0)             (3.13002 0 0)
          3.4             (106.685 0 0)             (3.17146 0 0)
         3.41             (106.673 0 0)             (3.18681 0 0)
         3.42             (106.67 0 0)             (3.17341 0 0)
         3.43             (106.681 0 0)             (3.12715 0 0)
         3.44             (106.702 0 0)             (3.06121 0 0)
         3.45             (106.732 0 0)             (2.97322 0 0)
         3.46             (106.763 0 0)             (2.86052 0 0)
         3.47             (106.787 0 0)             (2.72226 0 0)
         3.48             (106.796 0 0)             (2.55729 0 0)
         3.49             (106.784 0 0)             (2.36027 0 0)
          3.5             (106.746 0 0)             (2.14799 0 0)
         3.51             (106.683 0 0)             (1.92734 0 0)
         3.52             (106.602 0 0)             (1.70214 0 0)
         3.53             (106.511 0 0)             (1.47577 0 0)
         3.54             (106.419 0 0)             (1.25142 0 0)
         3.55             (106.333 0 0)             (1.03247 0 0)
         3.56             (106.258 0 0)             (0.822728 0 0)
         3.57             (106.197 0 0)             (0.625027 0 0)
         3.58             (106.147 0 0)             (0.441972 0 0)
         3.59             (106.104 0 0)             (0.276308 0 0)
          3.6             (106.063 0 0)             (0.131291 0 0)
         3.61             (106.022 0 0)             (0.0113752 0 0)
         3.62             (105.976 0 0)             (-0.0749324 0 0)
         3.63             (105.926 0 0)             (-0.142285 0 0)
         3.64             (105.873 0 0)             (-0.194131 0 0)
         3.65             (105.82 0 0)             (-0.229939 0 0)
         3.66             (105.773 0 0)             (-0.248769 0 0)
         3.67             (105.735 0 0)             (-0.249519 0 0)
         3.68             (105.711 0 0)             (-0.230638 0 0)
         3.69             (105.704 0 0)             (-0.197492 0 0)
          3.7             (105.715 0 0)             (-0.15413 0 0)
         3.71             (105.746 0 0)             (-0.0980665 0 0)
         3.72             (105.795 0 0)             (-0.029209 0 0)
         3.73             (105.861 0 0)             (0.0512596 0 0)
         3.74             (105.939 0 0)             (0.14104 0 0)
         3.75             (106.026 0 0)             (0.236962 0 0)
         3.76             (106.118 0 0)             (0.338778 0 0)
         3.77             (106.21 0 0)             (0.46289 0 0)
         3.78             (106.302 0 0)             (0.611511 0 0)
         3.79             (106.393 0 0)             (0.780481 0 0)
          3.8             (106.483 0 0)             (0.96491 0 0)
         3.81             (106.574 0 0)             (1.15994 0 0)
         3.82             (106.667 0 0)             (1.36092 0 0)
         3.83             (106.763 0 0)             (1.56318 0 0)
         3.84             (106.856 0 0)             (1.76237 0 0)
         3.85             (106.936 0 0)             (1.95449 0 0)
         3.86             (106.986 0 0)             (2.13605 0 0)
         3.87             (106.983 0 0)             (2.30405 0 0)
         3.88             (106.91 0 0)             (2.45606 0 0)
         3.89             (106.759 0 0)             (2.59063 0 0)
          3.9             (106.536 0 0)             (2.70906 0 0)
         3.91             (106.258 0 0)             (2.80578 0 0)
         3.92             (105.943 0 0)             (2.86721 0 0)
         3.93             (105.604 0 0)             (2.89148 0 0)
         3.94             (105.253 0 0)             (2.87537 0 0)
         3.95             (104.897 0 0)             (2.81531 0 0)
         3.96             (104.544 0 0)             (2.7249 0 0)
         3.97             (104.2 0 0)             (2.61631 0 0)
         3.98             (103.872 0 0)             (2.49069 0 0)
         3.99             (103.565 0 0)             (2.35005 0 0)
            4             (103.284 0 0)             (2.19677 0 0)
         4.01             (103.031 0 0)             (2.03322 0 0)
         4.02             (102.807 0 0)             (1.86194 0 0)
         4.03             (102.61 0 0)             (1.68558 0 0)
         4.04             (102.437 0 0)             (1.50573 0 0)
         4.05             (102.28 0 0)             (1.32425 0 0)
         4.06             (102.133 0 0)             (1.14321 0 0)
         4.07             (101.989 0 0)             (0.964813 0 0)
         4.08             (101.845 0 0)             (0.791286 0 0)
         4.09             (101.696 0 0)             (0.624749 0 0)
          4.1             (101.543 0 0)             (0.467195 0 0)
         4.11             (101.384 0 0)             (0.320396 0 0)
         4.12             (101.217 0 0)             (0.185787 0 0)
         4.13             (101.043 0 0)             (0.0645017 0 0)
         4.14             (100.864 0 0)             (-0.0426583 0 0)
         4.15             (100.683 0 0)             (-0.135263 0 0)
         4.16             (100.501 0 0)             (-0.213291 0 0)
         4.17             (100.323 0 0)             (-0.277071 0 0)
         4.18             (100.153 0 0)             (-0.327281 0 0)
         4.19             (99.9922 0 0)             (-0.364953 0 0)
          4.2             (99.8437 0 0)             (-0.391491 0 0)
         4.21             (99.7059 0 0)             (-0.408779 0 0)
         4.22             (99.5741 0 0)             (-0.419391 0 0)
         4.23             (99.4429 0 0)             (-0.426788 0 0)
         4.24             (99.3087 0 0)             (-0.433836 0 0)
         4.25             (99.1731 0 0)             (-0.439401 0 0)
         4.26             (99.0433 0 0)             (-0.441788 0 0)
         4.27             (98.9299 0 0)             (-0.421359 0 0)
         4.28             (98.8444 0 0)             (-0.380764 0 0)
         4.29             (98.7935 0 0)             (-0.327916 0 0)
          4.3             (98.7758 0 0)             (-0.257661 0 0)
         4.31             (98.7821 0 0)             (-0.185213 0 0)
         4.32             (98.7976 0 0)             (-0.115936 0 0)
         4.33             (98.808 0 0)             (-0.0516051 0 0)
         4.34             (98.8023 0 0)             (0.00638788 0 0)
         4.35             (98.7742 0 0)             (0.0570532 0 0)
         4.36             (98.7212 0 0)             (0.100809 0 0)
         4.37             (98.6434 0 0)             (0.13891 0 0)
         4.38             (98.5427 0 0)             (0.172207 0 0)
         4.39             (98.4222 0 0)             (0.201499 0 0)
          4.4             (98.2856 0 0)             (0.227533 0 0)
         4.41             (98.1352 0 0)             (0.251099 0 0)
         4.42             (97.971 0 0)             (0.273076 0 0)
         4.43             (97.7908 0 0)             (0.29407 0 0)
         4.44             (97.5916 0 0)             (0.314275 0 0)
         4.45             (97.372 0 0)             (0.333439 0 0)