# Probe 0 (249.6 0 0)
# Probe 1 (116.5 0 0)
#       Probe             0             1
#        Time
            0             (0 0 0)             (0 0 0)
         0.01             (0.111319 0 0)             (-0.120436 0 0)
         0.02             (0.183031 0 0)             (-0.423615 0 0)
         0.03             (0.327285 0 0)             (-0.504651 0 0)
         0.04             (0.734806 0 0)             (-0.287445 0 0)
         0.05             (1.01894 0 0)             (0.0117073 0 0)
         0.06             (1.16642 0 0)             (0.173126 0 0)
         0.07             (1.45587 0 0)             (0.183005 0 0)
         0.08             (2.01405 0 0)             (0.12097 0 0)
         0.09             (3.07651 0 0)             (0.061351 0 0)
          0.1             (5.11743 0 0)             (0.0285888 0 0)
         0.11             (8.58941 0 0)             (0.00973971 0 0)
         0.12             (13.4246 0 0)             (-0.00464445 0 0)
         0.13             (18.9512 0 0)             (-0.012385 0 0)
         0.14             (24.4398 0 0)             (-0.0123494 0 0)
         0.15             (29.2244 0 0)             (-0.00889906 0 0)
         0.16             (33.2208 0 0)             (-0.00637844 0 0)
         0.17             (36.6448 0 0)             (-0.00529913 0 0)
         0.18             (39.6472 0 0)             (-0.00337582 0 0)
         0.19             (42.3421 0 0)             (0.000186055 0 0)
          0.2             (44.7444 0 0)             (0.00435316 0 0)
         0.21             (46.9393 0 0)             (0.00827364 0 0)
         0.22             (48.9062 0 0)             (0.0118654 0 0)
         0.23             (50.7585 0 0)             (0.0152568 0 0)
         0.24             (52.4248 0 0)             (0.0184941 0 0)
         0.25             (53.9382 0 0)             (0.0217744 0 0)
         0.26             (55.3464 0 0)             (0.0249177 0 0)
         0.27             (56.653 0 0)             (0.0277003 0 0)
         0.28             (57.8485 0 0)             (0.0301934 0 0)
         0.29             (58.9761 0 0)             (0.032409 0 0)
          0.3             (60.0271 0 0)             (0.0340558 0 0)
         0.31             (61.0319 0 0)             (0.035055 0 0)
         0.32             (61.964 0 0)             (0.0355964 0 0)
         0.33             (62.8364 0 0)             (0.0355951 0 0)
         0.34             (63.643 0 0)             (0.035386 0 0)
         0.35             (64.4007 0 0)             (0.0354409 0 0)
         0.36             (65.1304 0 0)             (0.0356864 0 0)
         0.37             (65.8098 0 0)             (0.035831 0 0)
         0.38             (66.4653 0 0)             (0.0356855 0 0)
         0.39             (67.0797 0 0)             (0.0352492 0 0)
          0.4             (67.6631 0 0)             (0.0346205 0 0)
         0.41             (68.2199 0 0)             (0.0339118 0 0)
         0.42             (68.7545 0 0)             (0.0331918 0 0)
         0.43             (69.2682 0 0)             (0.0324656 0 0)
         0.44             (69.7654 0 0)             (0.0316848 0 0)
         0.45             (70.2348 0 0)             (0.0307864 0 0)
         0.46             (70.6964 0 0)             (0.0297368 0 0)
         0.47             (71.1427 0 0)             (0.0285598 0 0)
         0.48             (71.5816 0 0)             (0.0273126 0 0)
         0.49             (72.0081 0 0)             (0.0260247 0 0)
          0.5             (72.4094 0 0)             (0.0246907 0 0)
         0.51             (72.803 0 0)             (0.0232585 0 0)
         0.52             (73.1916 0 0)             (0.021682 0 0)
         0.53             (73.5713 0 0)             (0.019942 0 0)
         0.54             (73.9386 0 0)             (0.0180211 0 0)
         0.55             (74.3002 0 0)             (0.0160142 0 0)
         0.56             (74.6564 0 0)             (0.0140997 0 0)
         0.57             (75.006 0 0)             (0.0123156 0 0)
         0.58             (75.3472 0 0)             (0.0105992 0 0)
         0.59             (75.6853 0 0)             (0.00890501 0 0)
          0.6             (76.013 0 0)             (0.0072542 0 0)
         0.61             (76.341 0 0)             (0.00571632 0 0)
         0.62             (76.6575 0 0)             (0.00435896 0 0)
         0.63             (76.9794 0 0)             (0.00321136 0 0)
         0.64             (77.29 0 0)             (0.00230614 0 0)
         0.65             (77.5946 0 0)             (0.00170686 0 0)
         0.66             (77.8999 0 0)             (0.00136654 0 0)
         0.67             (78.2008 0 0)             (0.00118262 0 0)
         0.68             (78.497 0 0)             (0.00108522 0 0)
         0.69             (78.7804 0 0)             (0.00102822 0 0)
          0.7             (79.0721 0 0)             (0.00102396 0 0)
         0.71             (79.3585 0 0)             (0.00115456 0 0)
         0.72             (79.6386 0 0)             (0.00138895 0 0)
         0.73             (79.9128 0 0)             (0.00161871 0 0)
         0.74             (80.1959 0 0)             (0.00182493 0 0)
         0.75             (80.4668 0 0)             (0.00208779 0 0)
         0.76             (80.7414 0 0)             (0.00244927 0 0)
         0.77             (81.0064 0 0)             (0.00286238 0 0)
         0.78             (81.2692 0 0)             (0.00326745 0 0)
         0.79             (81.535 0 0)             (0.00365786 0 0)
          0.8             (81.7981 0 0)             (0.00406209 0 0)
         0.81             (82.0562 0 0)             (0.00449358 0 0)
         0.82             (82.3136 0 0)             (0.00493589 0 0)
         0.83             (82.5724 0 0)             (0.00536433 0 0)
         0.84             (82.8235 0 0)             (0.00576675 0 0)
         0.85             (83.0735 0 0)             (0.0061457 0 0)
         0.86             (83.3226 0 0)             (0.00650933 0 0)
         0.87             (83.5739 0 0)             (0.00686263 0 0)
         0.88             (83.8159 0 0)             (0.00720413 0 0)
         0.89             (84.0612 0 0)             (0.00752909 0 0)
          0.9             (84.299 0 0)             (0.00783479 0 0)
         0.91             (84.5371 0 0)             (0.00812248 0 0)
         0.92             (84.7754 0 0)             (0.00839512 0 0)
         0.93             (85.0072 0 0)             (0.00865429 0 0)
         0.94             (85.2414 0 0)             (0.00889936 0 0)
         0.95             (85.4724 0 0)             (0.0091283 0 0)
         0.96             (85.7019 0 0)             (0.00933849 0 0)
         0.97             (85.9302 0 0)             (0.00952717 0 0)
         0.98             (86.1552 0 0)             (0.00969285 0 0)
         0.99             (86.3794 0 0)             (0.00983665 0 0)
            1             (86.6031 0 0)             (0.00996104 0 0)
         1.01             (86.8238 0 0)             (0.0100676 0 0)
         1.02             (87.0428 0 0)             (0.0101579 0 0)
         1.03             (87.2569 0 0)             (0.0102366 0 0)
         1.04             (87.4682 0 0)             (0.0103146 0 0)
         1.05             (87.6844 0 0)             (0.0104091 0 0)
         1.06             (87.9026 0 0)             (0.0105126 0 0)
         1.07             (88.1136 0 0)             (0.0106097 0 0)
         1.08             (88.3175 0 0)             (0.0106857 0 0)
         1.09             (88.5182 0 0)             (0.0107303 0 0)
          1.1             (88.7276 0 0)             (0.0107375 0 0)
         1.11             (88.9363 0 0)             (0.0107008 0 0)
         1.12             (89.1432 0 0)             (0.0105952 0 0)
         1.13             (89.343 0 0)             (0.0104029 0 0)
         1.14             (89.5407 0 0)             (0.0101296 0 0)
         1.15             (89.7345 0 0)             (0.00978996 0 0)
         1.16             (89.9328 0 0)             (0.0093938 0 0)
         1.17             (90.1324 0 0)             (0.00894635 0 0)
         1.18             (90.3298 0 0)             (0.00843765 0 0)
         1.19             (90.5247 0 0)             (0.00785179 0 0)
          1.2             (90.7091 0 0)             (0.0071682 0 0)
         1.21             (90.8956 0 0)             (0.00637176 0 0)
         1.22             (91.0844 0 0)             (0.00545385 0 0)
         1.23             (91.2754 0 0)             (0.0044012 0 0)
         1.24             (91.4695 0 0)             (0.00321919 0 0)
         1.25             (91.6574 0 0)             (0.00190798 0 0)
         1.26             (91.8386 0 0)             (0.000468129 0 0)
         1.27             (92.0164 0 0)             (-0.00109518 0 0)
         1.28             (92.1963 0 0)             (-0.00278648 0 0)
         1.29             (92.3767 0 0)             (-0.00461156 0 0)
          1.3             (92.5593 0 0)             (-0.0065686 0 0)
         1.31             (92.7438 0 0)             (-0.00864074 0 0)
         1.32             (92.9224 0 0)             (-0.010825 0 0)
         1.33             (93.0962 0 0)             (-0.0131056 0 0)
         1.34             (93.2658 0 0)             (-0.0154643 0 0)
         1.35             (93.4331 0 0)             (-0.0178776 0 0)
         1.36             (93.6071 0 0)             (-0.0203161 0 0)
         1.37             (93.7827 0 0)             (-0.0227456 0 0)
         1.38             (93.9574 0 0)             (-0.0251356 0 0)
         1.39             (94.1344 0 0)             (-0.0274429 0 0)
          1.4             (94.3046 0 0)             (-0.0296228 0 0)
         1.41             (94.4692 0 0)             (-0.0316215 0 0)
         1.42             (94.6314 0 0)             (-0.0333872 0 0)
         1.43             (94.7929 0 0)             (-0.0348659 0 0)
         1.44             (94.9574 0 0)             (-0.036019 0 0)
         1.45             (95.126 0 0)             (-0.0368012 0 0)
         1.46             (95.2917 0 0)             (-0.0372118 0 0)
         1.47             (95.4603 0 0)             (-0.0373188 0 0)
         1.48             (95.6223 0 0)             (-0.0371967 0 0)
         1.49             (95.7829 0 0)             (-0.036902 0 0)
          1.5             (95.941 0 0)             (-0.0364855 0 0)
         1.51             (96.0967 0 0)             (-0.0359523 0 0)
         1.52             (96.2527 0 0)             (-0.0352764 0 0)
         1.53             (96.4083 0 0)             (-0.0344524 0 0)
         1.54             (96.5622 0 0)             (-0.0334906 0 0)
         1.55             (96.724 0 0)             (-0.0324019 0 0)
         1.56             (96.8829 0 0)             (-0.031194 0 0)
         1.57             (97.0413 0 0)             (-0.0298731 0 0)
         1.58             (97.1974 0 0)             (-0.0284441 0 0)
         1.59             (97.3506 0 0)             (-0.0269101 0 0)
          1.6             (97.4995 0 0)             (-0.0252727 0 0)
         1.61             (97.6475 0 0)             (-0.0235334 0 0)
         1.62             (97.7942 0 0)             (-0.0216951 0 0)
         1.63             (97.9417 0 0)             (-0.0197608 0 0)
         1.64             (98.0902 0 0)             (-0.017733 0 0)
         1.65             (98.2392 0 0)             (-0.0156121 0 0)
         1.66             (98.3894 0 0)             (-0.0134001 0 0)
         1.67             (98.5405 0 0)             (-0.0110992 0 0)
         1.68             (98.6861 0 0)             (-0.00870597 0 0)
         1.69             (98.8368 0 0)             (-0.0062197 0 0)
          1.7             (98.9806 0 0)             (-0.00364271 0 0)
         1.71             (99.1242 0 0)             (-0.000982336 0 0)
         1.72             (99.2679 0 0)             (0.00176254 0 0)
         1.73             (99.406 0 0)             (0.00459913 0 0)
         1.74             (99.5446 0 0)             (0.00753623 0 0)
         1.75             (99.6832 0 0)             (0.0105759 0 0)
         1.76             (99.8233 0 0)             (0.0136472 0 0)
         1.77             (99.9645 0 0)             (0.0167425 0 0)
         1.78             (100.101 0 0)             (0.0199107 0 0)
         1.79             (100.24 0 0)             (0.0231929 0 0)
          1.8             (100.38 0 0)             (0.0266302 0 0)
         1.81             (100.521 0 0)             (0.030259 0 0)
         1.82             (100.657 0 0)             (0.0341228 0 0)
         1.83             (100.795 0 0)             (0.0383495 0 0)
         1.84             (100.93 0 0)             (0.0429386 0 0)
         1.85             (101.064 0 0)             (0.0478602 0 0)
         1.86             (101.198 0 0)             (0.0530901 0 0)
         1.87             (101.332 0 0)             (0.0586301 0 0)
         1.88             (101.463 0 0)             (0.064517 0 0)
         1.89             (101.592 0 0)             (0.0707748 0 0)
          1.9             (101.722 0 0)             (0.0774605 0 0)
         1.91             (101.85 0 0)             (0.0846285 0 0)
         1.92             (101.98 0 0)             (0.0923511 0 0)
         1.93             (102.109 0 0)             (0.100681 0 0)
         1.94             (102.238 0 0)             (0.109694 0 0)
         1.95             (102.365 0 0)             (0.119444 0 0)
         1.96             (102.492 0 0)             (0.130017 0 0)
         1.97             (102.617 0 0)             (0.141488 0 0)
         1.98             (102.745 0 0)             (0.153959 0 0)
         1.99             (102.873 0 0)             (0.167526 0 0)
            2             (102.999 0 0)             (0.182305 0 0)
         2.01             (103.127 0 0)             (0.198442 0 0)
         2.02             (103.251 0 0)             (0.21613 0 0)
         2.03             (103.375 0 0)             (0.235497 0 0)
         2.04             (103.499 0 0)             (0.256692 0 0)
         2.05             (103.622 0 0)             (0.279904 0 0)
         2.06             (103.745 0 0)             (0.305391 0 0)
         2.07             (103.866 0 0)             (0.333378 0 0)
         2.08             (103.989 0 0)             (0.36409 0 0)
         2.09             (104.11 0 0)             (0.397914 0 0)
          2.1             (104.23 0 0)             (0.435051 0 0)
         2.11             (104.347 0 0)             (0.475823 0 0)
         2.12             (104.465 0 0)             (0.520761 0 0)
         2.13             (104.586 0 0)             (0.570296 0 0)
         2.14             (104.7 0 0)             (0.624606 0 0)
         2.15             (104.817 0 0)             (0.684237 0 0)
         2.16             (104.933 0 0)             (0.749735 0 0)
         2.17             (105.051 0 0)             (0.821447 0 0)
         2.18             (105.169 0 0)             (0.899733 0 0)
         2.19             (105.284 0 0)             (0.985462 0 0)
          2.2             (105.401 0 0)             (1.07902 0 0)
         2.21             (105.514 0 0)             (1.18134 0 0)
         2.22             (105.629 0 0)             (1.29245 0 0)
         2.23             (105.745 0 0)             (1.41307 0 0)
