# Probe 0 (1 0 0)
# Probe 1 (140 0 0)
# Probe 2 (200 0 0)
# Probe 3 (250 0 0)
# Probe 4 (255 0 0)
#       Probe             0             1             2             3             4
#        Time
            0             (0 0 0)             (0 0 0)             (0 0 0)             (0 0 0)             (0 0 0)
         0.01             (-3.35748e-11 0 0)             (-1.20441e-11 0 0)             (-1.93625e-11 0 0)             (2.34892e-09 0 0)             (15.0255 0 0)
         0.02             (2.85772e-11 0 0)             (-9.63155e-12 0 0)             (-1.03977e-10 0 0)             (0.00244362 0 0)             (38.3088 0 0)
         0.03             (-2.14026e-11 0 0)             (-2.39524e-12 0 0)             (-1.67363e-10 0 0)             (0.20734 0 0)             (47.2839 0 0)
         0.04             (-3.69114e-11 0 0)             (1.56388e-11 0 0)             (-1.9953e-11 0 0)             (0.850164 0 0)             (52.3483 0 0)
         0.05             (5.42579e-11 0 0)             (-8.58099e-11 0 0)             (1.36812e-10 0 0)             (2.38792 0 0)             (55.6495 0 0)
         0.06             (3.54667e-11 0 0)             (2.83714e-10 0 0)             (3.05638e-10 0 0)             (6.82098 0 0)             (57.5816 0 0)
         0.07             (-8.85009e-11 0 0)             (-1.31249e-10 0 0)             (3.4896e-10 0 0)             (13.5294 0 0)             (58.734 0 0)
         0.08             (-2.36422e-11 0 0)             (1.50432e-11 0 0)             (3.91689e-10 0 0)             (19.5981 0 0)             (59.4011 0 0)
         0.09             (7.42333e-11 0 0)             (-4.95559e-11 0 0)             (1.64288e-10 0 0)             (24.4514 0 0)             (59.7766 0 0)
          0.1             (-1.23279e-10 0 0)             (-2.35011e-11 0 0)             (-1.33835e-10 0 0)             (28.3028 0 0)             (60.0136 0 0)
         0.11             (-1.48979e-10 0 0)             (1.47481e-10 0 0)             (-4.20036e-10 0 0)             (31.404 0 0)             (60.1827 0 0)
         0.12             (1.09504e-10 0 0)             (-4.05297e-10 0 0)             (-6.16736e-10 0 0)             (33.9491 0 0)             (60.3242 0 0)
         0.13             (6.12191e-11 0 0)             (2.74067e-10 0 0)             (1.91332e-12 0 0)             (36.0685 0 0)             (60.4942 0 0)
         0.14             (-1.64002e-10 0 0)             (-3.46666e-10 0 0)             (6.47491e-10 0 0)             (37.8534 0 0)             (60.7082 0 0)
         0.15             (-7.66164e-11 0 0)             (4.5771e-10 0 0)             (2.59177e-10 0 0)             (39.3843 0 0)             (60.9673 0 0)
         0.16             (1.36176e-10 0 0)             (-4.91726e-10 0 0)             (-8.65279e-10 0 0)             (40.7049 0 0)             (61.258 0 0)
         0.17             (-8.19822e-11 0 0)             (4.47432e-10 0 0)             (5.95302e-10 0 0)             (41.8223 0 0)             (61.5377 0 0)
         0.18             (-2.18297e-10 0 0)             (-3.25853e-10 0 0)             (1.1671e-10 0 0)             (42.7586 0 0)             (61.8229 0 0)
         0.19             (7.5901e-11 0 0)             (2.14026e-10 0 0)             (-2.19855e-10 0 0)             (43.5479 0 0)             (62.1299 0 0)
          0.2             (1.63007e-10 0 0)             (9.80268e-11 0 0)             (1.1788e-09 0 0)             (44.221 0 0)             (62.45 0 0)
         0.21             (-1.03564e-10 0 0)             (2.20929e-11 0 0)             (5.48886e-09 0 0)             (44.7974 0 0)             (62.7767 0 0)
         0.22             (-6.03146e-11 0 0)             (3.01138e-10 0 0)             (2.15876e-07 0 0)             (45.2975 0 0)             (63.0827 0 0)
         0.23             (1.77703e-10 0 0)             (-3.50226e-10 0 0)             (4.57363e-06 0 0)             (45.7448 0 0)             (63.3502 0 0)
         0.24             (-9.35086e-12 0 0)             (4.58228e-10 0 0)             (5.72154e-05 0 0)             (46.1537 0 0)             (63.6071 0 0)
         0.25             (-1.75025e-10 0 0)             (-3.23121e-10 0 0)             (0.000419087 0 0)             (46.5362 0 0)             (63.8646 0 0)
         0.26             (1.07751e-10 0 0)             (2.67355e-10 0 0)             (0.00180353 0 0)             (46.8999 0 0)             (64.1235 0 0)
         0.27             (1.31533e-10 0 0)             (2.81788e-11 0 0)             (0.00481657 0 0)             (47.2486 0 0)             (64.3839 0 0)
         0.28             (-1.22806e-10 0 0)             (2.13407e-10 0 0)             (0.00927099 0 0)             (47.5849 0 0)             (64.624 0 0)
         0.29             (-3.65096e-11 0 0)             (-1.59e-10 0 0)             (0.0153034 0 0)             (47.909 0 0)             (64.8263 0 0)
          0.3             (1.55918e-10 0 0)             (-5.01538e-11 0 0)             (0.0235616 0 0)             (48.2235 0 0)             (65.0206 0 0)
         0.31             (-6.07218e-11 0 0)             (2.67924e-10 0 0)             (0.0346791 0 0)             (48.5299 0 0)             (65.2198 0 0)
         0.32             (-1.35937e-10 0 0)             (-6.7564e-10 0 0)             (0.0493169 0 0)             (48.8277 0 0)             (65.4219 0 0)
         0.33             (1.35588e-10 0 0)             (4.70088e-10 0 0)             (0.0681893 0 0)             (49.1169 0 0)             (65.6231 0 0)
         0.34             (1.12905e-10 0 0)             (-5.19754e-10 0 0)             (0.0920293 0 0)             (49.3968 0 0)             (65.8236 0 0)
         0.35             (-1.09579e-10 0 0)             (1.4421e-10 0 0)             (0.121505 0 0)             (49.6663 0 0)             (65.9897 0 0)
         0.36             (-1.32173e-11 0 0)             (-3.90159e-11 0 0)             (0.157149 0 0)             (49.9245 0 0)             (66.1334 0 0)
         0.37             (1.49334e-10 0 0)             (-6.64369e-11 0 0)             (0.199261 0 0)             (50.1708 0 0)             (66.2816 0 0)
         0.38             (-5.72077e-11 0 0)             (1.58013e-10 0 0)             (0.247805 0 0)             (50.4059 0 0)             (66.4388 0 0)
         0.39             (-7.46728e-11 0 0)             (-3.51583e-10 0 0)             (0.302341 0 0)             (50.6316 0 0)             (66.6007 0 0)
          0.4             (9.55614e-11 0 0)             (6.04857e-10 0 0)             (0.361861 0 0)             (50.8484 0 0)             (66.7643 0 0)
         0.41             (1.90834e-11 0 0)             (-4.38891e-10 0 0)             (0.424891 0 0)             (51.0562 0 0)             (66.9191 0 0)
         0.42             (-5.08144e-11 0 0)             (8.57269e-10 0 0)             (0.489623 0 0)             (51.2552 0 0)             (67.0377 0 0)
         0.43             (1.84501e-10 0 0)             (1.59159e-10 0 0)             (0.554079 0 0)             (51.4458 0 0)             (67.1487 0 0)
         0.44             (9.23532e-11 0 0)             (5.58757e-10 0 0)             (0.616761 0 0)             (51.6286 0 0)             (67.2701 0 0)
         0.45             (-1.59987e-10 0 0)             (1.63675e-09 0 0)             (0.694286 0 0)             (51.8049 0 0)             (67.4013 0 0)
         0.46             (8.35538e-14 0 0)             (2.61784e-09 0 0)             (0.790001 0 0)             (51.9745 0 0)             (67.5376 0 0)
         0.47             (2.00346e-10 0 0)             (1.79664e-08 0 0)             (0.905872 0 0)             (52.1363 0 0)             (67.6787 0 0)
         0.48             (-9.10512e-12 0 0)             (1.18251e-07 0 0)             (1.02565 0 0)             (52.2906 0 0)             (67.8016 0 0)
         0.49             (-6.47146e-11 0 0)             (6.5206e-07 0 0)             (1.1583 0 0)             (52.4392 0 0)             (67.8947 0 0)
          0.5             (1.25188e-10 0 0)             (3.04726e-06 0 0)             (1.29835 0 0)             (52.5835 0 0)             (67.9885 0 0)
         0.51             (2.13953e-11 0 0)             (1.2082e-05 0 0)             (1.43818 0 0)             (52.7232 0 0)             (68.0934 0 0)
         0.52             (-1.40084e-10 0 0)             (4.06068e-05 0 0)             (1.57295 0 0)             (52.8568 0 0)             (68.2075 0 0)
         0.53             (1.95941e-11 0 0)             (0.000115666 0 0)             (1.69812 0 0)             (52.9842 0 0)             (68.3269 0 0)
         0.54             (3.16822e-11 0 0)             (0.000279785 0 0)             (1.81741 0 0)             (53.1066 0 0)             (68.4516 0 0)
         0.55             (-1.33853e-10 0 0)             (0.000578592 0 0)             (1.90838 0 0)             (53.2255 0 0)             (68.5574 0 0)
         0.56             (2.60345e-12 0 0)             (0.00103811 0 0)             (2.00176 0 0)             (53.341 0 0)             (68.632 0 0)
         0.57             (1.30709e-10 0 0)             (0.00165705 0 0)             (2.06423 0 0)             (53.4525 0 0)             (68.7087 0 0)
         0.58             (-3.83364e-11 0 0)             (0.00243038 0 0)             (2.11224 0 0)             (53.5592 0 0)             (68.7992 0 0)
         0.59             (-6.48589e-11 0 0)             (0.00337593 0 0)             (2.16706 0 0)             (53.6615 0 0)             (68.9008 0 0)
          0.6             (8.67758e-11 0 0)             (0.00453443 0 0)             (2.203 0 0)             (53.7604 0 0)             (69.0082 0 0)
         0.61             (3.03857e-11 0 0)             (0.00595373 0 0)             (2.22287 0 0)             (53.857 0 0)             (69.1208 0 0)
         0.62             (-1.11123e-10 0 0)             (0.00768074 0 0)             (2.27389 0 0)             (53.9511 0 0)             (69.217 0 0)
         0.63             (3.68466e-11 0 0)             (0.00976514 0 0)             (2.38433 0 0)             (54.0417 0 0)             (69.283 0 0)
         0.64             (7.83877e-11 0 0)             (0.0122644 0 0)             (2.53381 0 0)             (54.1288 0 0)             (69.3531 0 0)
         0.65             (-8.10854e-11 0 0)             (0.0152448 0 0)             (2.70662 0 0)             (54.2126 0 0)             (69.4387 0 0)
         0.66             (1.00916e-11 0 0)             (0.0187807 0 0)             (2.93692 0 0)             (54.2932 0 0)             (69.5359 0 0)
         0.67             (6.20925e-11 0 0)             (0.0229545 0 0)             (3.20193 0 0)             (54.3695 0 0)             (69.6396 0 0)
         0.68             (-8.04561e-11 0 0)             (0.0278573 0 0)             (3.52709 0 0)             (54.4365 0 0)             (69.751 0 0)
         0.69             (4.83388e-11 0 0)             (0.0335895 0 0)             (3.91285 0 0)             (54.4759 0 0)             (69.8333 0 0)
          0.7             (1.06734e-10 0 0)             (0.04026 0 0)             (4.35334 0 0)             (54.4605 0 0)             (69.8955 0 0)
         0.71             (-1.48816e-10 0 0)             (0.0479856 0 0)             (4.83403 0 0)             (54.3871 0 0)             (69.9625 0 0)
         0.72             (-1.29333e-10 0 0)             (0.0568895 0 0)             (5.37028 0 0)             (54.2884 0 0)             (70.0227 0 0)
         0.73             (6.70489e-11 0 0)             (0.0670992 0 0)             (5.93231 0 0)             (54.1931 0 0)             (70.0497 0 0)
         0.74             (1.18995e-11 0 0)             (0.0787446 0 0)             (6.51359 0 0)             (54.1031 0 0)             (70.0396 0 0)
         0.75             (-7.19268e-11 0 0)             (0.0919538 0 0)             (7.10648 0 0)             (54.014 0 0)             (70.0014 0 0)
         0.76             (5.76485e-11 0 0)             (0.106848 0 0)             (7.69965 0 0)             (53.9214 0 0)             (69.9344 0 0)
         0.77             (-4.51884e-12 0 0)             (0.123533 0 0)             (8.29012 0 0)             (53.8148 0 0)             (69.883 0 0)
         0.78             (-8.65879e-11 0 0)             (0.142101 0 0)             (8.87093 0 0)             (53.761 0 0)             (69.8585 0 0)
         0.79             (2.95786e-11 0 0)             (0.162636 0 0)             (9.44026 0 0)             (53.7853 0 0)             (69.854 0 0)
          0.8             (-3.28497e-11 0 0)             (0.185183 0 0)             (9.98047 0 0)             (53.812 0 0)             (69.8622 0 0)
         0.81             (-1.01287e-10 0 0)             (0.209728 0 0)             (10.5249 0 0)             (53.8282 0 0)             (69.8348 0 0)
         0.82             (2.11994e-11 0 0)             (0.236222 0 0)             (11.0289 0 0)             (53.853 0 0)             (69.7999 0 0)
         0.83             (4.09065e-12 0 0)             (0.264595 0 0)             (11.5349 0 0)             (53.866 0 0)             (69.7737 0 0)
         0.84             (-7.56207e-11 0 0)             (0.29471 0 0)             (12.0036 0 0)             (53.8527 0 0)             (69.7994 0 0)
         0.85             (3.43471e-11 0 0)             (0.326405 0 0)             (12.4702 0 0)             (53.9702 0 0)             (69.8596 0 0)
         0.86             (-5.14644e-11 0 0)             (0.359487 0 0)             (12.9084 0 0)             (54.0093 0 0)             (69.887 0 0)
         0.87             (-3.92919e-11 0 0)             (0.393646 0 0)             (13.3295 0 0)             (54.0316 0 0)             (69.9481 0 0)
         0.88             (8.55116e-12 0 0)             (0.428657 0 0)             (13.7504 0 0)             (54.0227 0 0)             (69.9372 0 0)
         0.89             (-8.45485e-11 0 0)             (0.4642 0 0)             (14.1437 0 0)             (54.0022 0 0)             (70.0467 0 0)
          0.9             (3.02377e-12 0 0)             (0.499765 0 0)             (14.5187 0 0)             (54.1261 0 0)             (70.075 0 0)
         0.91             (-1.11704e-12 0 0)             (0.534754 0 0)             (14.8937 0 0)             (54.0601 0 0)             (70.1345 0 0)
         0.92             (-7.72174e-11 0 0)             (0.568759 0 0)             (15.2536 0 0)             (54.09 0 0)             (70.2641 0 0)
         0.93             (1.79079e-11 0 0)             (0.60143 0 0)             (15.5885 0 0)             (54.1343 0 0)             (70.1823 0 0)
         0.94             (3.73054e-11 0 0)             (0.632427 0 0)             (15.9147 0 0)             (54.1941 0 0)             (70.1627 0 0)
         0.95             (-3.27611e-11 0 0)             (0.661981 0 0)             (16.2395 0 0)             (54.1661 0 0)             (70.1485 0 0)
         0.96             (5.90551e-11 0 0)             (0.689247 0 0)             (16.5484 0 0)             (54.2497 0 0)             (70.2178 0 0)
         0.97             (3.87874e-11 0 0)             (0.738843 0 0)             (16.8374 0 0)             (54.279 0 0)             (70.1616 0 0)
         0.98             (-2.50101e-11 0 0)             (0.799904 0 0)             (17.1234 0 0)             (54.2964 0 0)             (70.2045 0 0)
         0.99             (1.20185e-10 0 0)             (0.84085 0 0)             (17.4043 0 0)             (54.3325 0 0)             (70.2119 0 0)
            1             (1.31554e-10 0 0)             (0.896333 0 0)             (17.6611 0 0)             (54.4486 0 0)             (70.2749 0 0)
         1.01             (8.4328e-11 0 0)             (0.967822 0 0)             (17.9105 0 0)             (54.2963 0 0)             (70.2201 0 0)
         1.02             (2.02171e-10 0 0)             (1.0247 0 0)             (18.1605 0 0)             (54.4593 0 0)             (70.2758 0 0)
         1.03             (2.82037e-10 0 0)             (1.09386 0 0)             (18.3893 0 0)             (54.3724 0 0)             (70.1977 0 0)
         1.04             (3.66945e-10 0 0)             (1.16875 0 0)             (18.6148 0 0)             (54.3881 0 0)             (70.1746 0 0)
         1.05             (5.54796e-10 0 0)             (1.23707 0 0)             (18.8348 0 0)             (54.5256 0 0)             (70.2337 0 0)
         1.06             (1.04077e-09 0 0)             (1.31548 0 0)             (19.0352 0 0)             (54.4938 0 0)             (70.3211 0 0)
         1.07             (2.06777e-09 0 0)             (1.38427 0 0)             (19.2414 0 0)             (54.479 0 0)             (70.2909 0 0)
         1.08             (4.77581e-09 0 0)             (1.45743 0 0)             (19.4266 0 0)             (54.6131 0 0)             (70.2578 0 0)
         1.09             (1.2477e-08 0 0)             (1.53089 0 0)             (19.6165 0 0)             (54.51 0 0)             (70.3018 0 0)
          1.1             (3.01798e-08 0 0)             (1.59451 0 0)             (19.7959 0 0)             (54.5452 0 0)             (70.1503 0 0)
         1.11             (6.67947e-08 0 0)             (1.66371 0 0)             (19.9613 0 0)             (54.6266 0 0)             (70.2734 0 0)
         1.12             (1.39807e-07 0 0)             (1.72364 0 0)             (20.1316 0 0)             (54.6063 0 0)             (70.3112 0 0)
         1.13             (2.7938e-07 0 0)             (1.77416 0 0)             (20.2866 0 0)             (54.594 0 0)             (70.1447 0 0)
         1.14             (5.35235e-07 0 0)             (1.83151 0 0)             (20.4411 0 0)             (54.5837 0 0)             (70.1809 0 0)
         1.15             (9.84433e-07 0 0)             (1.886 0 0)             (20.5906 0 0)             (54.7716 0 0)             (70.3773 0 0)
         1.16             (1.73873e-06 0 0)             (1.91919 0 0)             (20.7306 0 0)             (54.6271 0 0)             (70.2511 0 0)
         1.17             (2.949e-06 0 0)             (1.94933 0 0)             (20.8704 0 0)             (54.7785 0 0)             (70.1493 0 0)
         1.18             (4.80327e-06 0 0)             (1.99118 0 0)             (20.9997 0 0)             (54.807 0 0)             (70.3372 0 0)
         1.19             (7.51494e-06 0 0)             (2.03468 0 0)             (21.1296 0 0)             (54.7506 0 0)             (70.1887 0 0)
          1.2             (1.12997e-05 0 0)             (2.05943 0 0)             (21.2539 0 0)             (54.7016 0 0)             (70.3709 0 0)
         1.21             (1.63434e-05 0 0)             (2.07943 0 0)             (21.3673 0 0)             (54.8573 0 0)             (70.3652 0 0)
         1.22             (2.27693e-05 0 0)             (2.09564 0 0)             (21.4866 0 0)             (54.816 0 0)             (70.2713 0 0)
         1.23             (3.06161e-05 0 0)             (2.10894 0 0)             (21.5932 0 0)             (54.7488 0 0)             (70.1801 0 0)
         1.24             (3.98403e-05 0 0)             (2.11938 0 0)             (21.7021 0 0)             (54.8679 0 0)             (70.3995 0 0)
         1.25             (5.03476e-05 0 0)             (2.12911 0 0)             (21.8067 0 0)             (54.8995 0 0)             (70.2773 0 0)
         1.26             (6.20458e-05 0 0)             (2.13474 0 0)             (21.9027 0 0)             (54.7947 0 0)             (70.2111 0 0)
         1.27             (7.49021e-05 0 0)             (2.15375 0 0)             (22.0029 0 0)             (54.9723 0 0)             (70.2088 0 0)
         1.28             (8.89811e-05 0 0)             (2.17429 0 0)             (22.0971 0 0)             (54.8405 0 0)             (70.4366 0 0)
         1.29             (0.000104451 0 0)             (2.18988 0 0)             (22.1849 0 0)             (54.9657 0 0)             (70.2954 0 0)
          1.3             (0.000121556 0 0)             (2.19741 0 0)             (22.2765 0 0)             (54.8586 0 0)             (70.565 0 0)
         1.31             (0.00014057 0 0)             (2.20538 0 0)             (22.3605 0 0)             (54.8639 0 0)             (70.285 0 0)
         1.32             (0.000161754 0 0)             (2.21207 0 0)             (22.4433 0 0)             (54.9135 0 0)             (70.4862 0 0)
         1.33             (0.000185322 0 0)             (2.21741 0 0)             (22.5243 0 0)             (55.061 0 0)             (70.3159 0 0)
         1.34             (0.000211452 0 0)             (2.22162 0 0)             (22.6004 0 0)             (54.9353 0 0)             (70.286 0 0)
         1.35             (0.000240301 0 0)             (2.22528 0 0)             (22.674 0 0)             (54.9502 0 0)             (70.3289 0 0)
         1.36             (0.000272041 0 0)             (2.22837 0 0)             (22.7488 0 0)             (55.0952 0 0)             (70.5401 0 0)
         1.37             (0.000306883 0 0)             (2.23427 0 0)             (22.8236 0 0)             (54.9723 0 0)             (70.4234 0 0)
         1.38             (0.000345084 0 0)             (2.22919 0 0)             (22.8922 0 0)             (54.9854 0 0)             (70.3186 0 0)
         1.39             (0.000386945 0 0)             (2.24829 0 0)             (22.9622 0 0)             (55.096 0 0)             (70.5861 0 0)
          1.4             (0.000432791 0 0)             (2.27654 0 0)             (23.0283 0 0)             (54.9788 0 0)             (70.4203 0 0)
         1.41             (0.000482969 0 0)             (2.34495 0 0)             (23.0915 0 0)             (55.1546 0 0)             (70.3468 0 0)
         1.42             (0.000537839 0 0)             (2.40641 0 0)             (23.1523 0 0)             (55.0011 0 0)             (70.6054 0 0)
         1.43             (0.000597783 0 0)             (2.47245 0 0)             (23.2118 0 0)             (55.1746 0 0)             (70.3629 0 0)
         1.44             (0.000663209 0 0)             (2.54854 0 0)             (23.2695 0 0)             (55.0122 0 0)             (70.537 0 0)
         1.45             (0.00073456 0 0)             (2.63568 0 0)             (23.3271 0 0)             (55.1698 0 0)             (70.3925 0 0)
         1.46             (0.000812319 0 0)             (2.73877 0 0)             (23.3824 0 0)             (55.0978 0 0)             (70.5288 0 0)
         1.47             (0.000897005 0 0)             (2.83913 0 0)             (23.437 0 0)             (55.1369 0 0)             (70.3735 0 0)
         1.48             (0.000989179 0 0)             (2.95092 0 0)             (23.489 0 0)             (55.2054 0 0)             (70.4642 0 0)
         1.49             (0.00108944 0 0)             (3.07475 0 0)             (23.5387 0 0)             (55.2447 0 0)             (70.6319 0 0)
          1.5             (0.00119842 0 0)             (3.21241 0 0)             (23.5895 0 0)             (55.1545 0 0)             (70.6634 0 0)
         1.51             (0.00131681 0 0)             (3.3692 0 0)             (23.6408 0 0)             (55.2297 0 0)             (70.6354 0 0)
         1.52             (0.00144533 0 0)             (3.53085 0 0)             (23.6861 0 0)             (55.26 0 0)             (70.4495 0 0)
         1.53             (0.00158475 0 0)             (3.70689 0 0)             (23.7297 0 0)             (55.2007 0 0)             (70.567 0 0)
         1.54             (0.0017359 0 0)             (3.89706 0 0)             (23.7768 0 0)             (55.3166 0 0)             (70.5544 0 0)
         1.55             (0.00189966 0 0)             (4.09228 0 0)             (23.8171 0 0)             (55.2298 0 0)             (70.5121 0 0)
         1.56             (0.00207694 0 0)             (4.30146 0 0)             (23.861 0 0)             (55.3419 0 0)             (70.4507 0 0)
         1.57             (0.00226874 0 0)             (4.51695 0 0)             (23.9026 0 0)             (55.2987 0 0)             (70.5655 0 0)
         1.58             (0.0024761 0 0)             (4.74925 0 0)             (23.9464 0 0)             (55.2975 0 0)             (70.6017 0 0)
         1.59             (0.00270011 0 0)             (4.9751 0 0)             (23.9837 0 0)             (55.3724 0 0)             (70.5292 0 0)
          1.6             (0.0029419 0 0)             (5.21614 0 0)             (24.0206 0 0)             (55.2894 0 0)             (70.5757 0 0)
         1.61             (0.00320264 0 0)             (5.46783 0 0)             (24.0584 0 0)             (55.4052 0 0)             (70.5566 0 0)
         1.62             (0.00348349 0 0)             (5.71771 0 0)             (24.0972 0 0)             (55.3073 0 0)             (70.5052 0 0)
         1.63             (0.00378567 0 0)             (5.9711 0 0)             (24.1339 0 0)             (55.4012 0 0)             (70.6772 0 0)
         1.64             (0.00411038 0 0)             (6.22943 0 0)             (24.1686 0 0)             (55.3622 0 0)             (70.5702 0 0)
         1.65             (0.00445884 0 0)             (6.48312 0 0)             (24.2024 0 0)             (55.3817 0 0)             (70.6062 0 0)
         1.66             (0.00483224 0 0)             (6.73744 0 0)             (24.2376 0 0)             (55.4548 0 0)             (70.5433 0 0)
         1.67             (0.00523174 0 0)             (6.9916 0 0)             (24.2709 0 0)             (55.3472 0 0)             (70.5343 0 0)
         1.68             (0.00565843 0 0)             (7.24409 0 0)             (24.3051 0 0)             (55.4654 0 0)             (70.6047 0 0)
         1.69             (0.00611332 0 0)             (7.49818 0 0)             (24.3373 0 0)             (55.4256 0 0)             (70.5968 0 0)
          1.7             (0.00659734 0 0)             (7.74739 0 0)             (24.3682 0 0)             (55.4252 0 0)             (70.6748 0 0)
         1.71             (0.00711127 0 0)             (7.98995 0 0)             (24.4001 0 0)             (55.5014 0 0)             (70.7009 0 0)
         1.72             (0.00765581 0 0)             (8.22656 0 0)             (24.4314 0 0)             (55.409 0 0)             (70.6474 0 0)
         1.73             (0.00823144 0 0)             (8.4604 0 0)             (24.4625 0 0)             (55.5344 0 0)             (70.7499 0 0)
         1.74             (0.00883844 0 0)             (8.68912 0 0)             (24.4917 0 0)             (55.4705 0 0)             (70.6568 0 0)
         1.75             (0.00947679 0 0)             (8.91219 0 0)             (24.52 0 0)             (55.4598 0 0)             (70.8299 0 0)
         1.76             (0.0101462 0 0)             (9.13078 0 0)             (24.5473 0 0)             (55.5753 0 0)             (70.7135 0 0)
         1.77             (0.010846 0 0)             (9.34399 0 0)             (24.5747 0 0)             (55.4976 0 0)             (70.7064 0 0)
         1.78             (0.0115752 0 0)             (9.5532 0 0)             (24.603 0 0)             (55.4947 0 0)             (70.8203 0 0)
         1.79             (0.0123326 0 0)             (9.75575 0 0)             (24.6304 0 0)             (55.6099 0 0)             (70.5011 0 0)
          1.8             (0.0131162 0 0)             (9.95116 0 0)             (24.656 0 0)             (55.5195 0 0)             (70.6867 0 0)
         1.81             (0.0139238 0 0)             (10.1369 0 0)             (24.6813 0 0)             (55.552 0 0)             (70.7234 0 0)
         1.82             (0.0147526 0 0)             (10.3155 0 0)             (24.7083 0 0)             (55.6288 0 0)             (70.639 0 0)
         1.83             (0.0155991 0 0)             (10.4959 0 0)             (24.735 0 0)             (55.5185 0 0)             (70.8236 0 0)
         1.84             (0.0164594 0 0)             (10.6751 0 0)             (24.7615 0 0)             (55.6207 0 0)             (70.9101 0 0)
         1.85             (0.017329 0 0)             (10.8386 0 0)             (24.7872 0 0)             (55.6641 0 0)             (70.7697 0 0)
         1.86             (0.0182031 0 0)             (11.0019 0 0)             (24.8116 0 0)             (55.5643 0 0)             (70.9144 0 0)
         1.87             (0.019076 0 0)             (11.1691 0 0)             (24.836 0 0)             (55.6453 0 0)             (70.7977 0 0)
         1.88             (0.0199418 0 0)             (11.3176 0 0)             (24.8604 0 0)             (55.6752 0 0)             (70.7376 0 0)
         1.89             (0.0207942 0 0)             (11.4666 0 0)             (24.8842 0 0)             (55.5855 0 0)             (70.9076 0 0)
          1.9             (0.0216263 0 0)             (11.6163 0 0)             (24.9077 0 0)             (55.6942 0 0)             (70.8215 0 0)
         1.91             (0.0224312 0 0)             (11.7495 0 0)             (24.9327 0 0)             (55.7001 0 0)             (70.7043 0 0)
         1.92             (0.0232015 0 0)             (11.8921 0 0)             (24.9567 0 0)             (55.6162 0 0)             (70.9881 0 0)
         1.93             (0.0239299 0 0)             (12.0178 0 0)             (24.9802 0 0)             (55.7037 0 0)             (70.9607 0 0)
         1.94             (0.024184 0 0)             (12.1504 0 0)             (25.0032 0 0)             (55.7851 0 0)             (70.7721 0 0)
         1.95             (0.0246639 0 0)             (12.2711 0 0)             (25.0257 0 0)             (55.6801 0 0)             (71.0179 0 0)
         1.96             (0.0251066 0 0)             (12.3971 0 0)             (25.0476 0 0)             (55.7044 0 0)             (70.9305 0 0)
         1.97             (0.0255127 0 0)             (12.5129 0 0)             (25.0683 0 0)             (55.8125 0 0)             (70.7674 0 0)
         1.98             (0.0258706 0 0)             (12.6331 0 0)             (25.0899 0 0)             (55.7532 0 0)             (70.953 0 0)