# Probe 0 (1 0 0)
# Probe 1 (110 0 0)
# Probe 2 (200 0 0)
# Probe 3 (242.5 0 0)
# Probe 4 (255 0 0)
#       Probe             0             1             2             3             4
#        Time
            0          0.48          0.48          0.48          0.48          0.48
         0.01      0.487741      0.487741      0.487741      0.487741      0.533601
         0.02      0.487741      0.487741      0.487741      0.487741      0.622557
         0.03      0.487741      0.487741      0.487741      0.487741      0.662896
         0.04      0.487741      0.487741      0.487741      0.487741      0.685346
         0.05      0.487741      0.487741      0.487741      0.487741      0.699931
         0.06      0.487741      0.487741      0.487741      0.487741      0.709402
         0.07      0.487741      0.487741      0.487741      0.487749      0.715931
         0.08      0.487741      0.487741      0.487741      0.487833      0.720121
         0.09      0.487741      0.487741      0.487741      0.488304       0.72283
          0.1      0.487741      0.487741      0.487741      0.491356      0.724465
         0.11      0.487741      0.487741      0.487741      0.500049       0.72557
         0.12      0.487741      0.487741      0.487741      0.501747       0.72641
         0.13      0.487741      0.487741      0.487741      0.506219      0.727171
         0.14      0.487741      0.487741      0.487741       0.51551      0.727991
         0.15      0.487741      0.487741      0.487741      0.528198      0.728955
         0.16      0.487741      0.487741      0.487741      0.541536      0.730066
         0.17      0.487741      0.487741      0.487741      0.554025      0.731284
         0.18      0.487741      0.487741      0.487741      0.565268      0.732596
         0.19      0.487741      0.487741      0.487741      0.575316      0.734011
          0.2      0.487741      0.487741      0.487741      0.584323      0.735527
         0.21      0.487741      0.487741      0.487741      0.592435      0.737109
         0.22      0.487741      0.487741      0.487741      0.599779      0.738742
         0.23      0.487741      0.487741      0.487741      0.606463       0.74039
         0.24      0.487741      0.487741      0.487741      0.612577      0.742031
         0.25      0.487741      0.487741      0.487741      0.618192      0.743665
         0.26      0.487741      0.487741      0.487741      0.623366      0.745278
         0.27      0.487741      0.487741      0.487741      0.628146      0.746876
         0.28      0.487741      0.487741      0.487741      0.632574      0.748467
         0.29      0.487741      0.487741      0.487741      0.636685      0.750037
          0.3      0.487741      0.487741      0.487741      0.640513      0.751587
         0.31      0.487741      0.487741      0.487741      0.644083      0.753111
         0.32      0.487741      0.487741      0.487741      0.647418      0.754606
         0.33      0.487741      0.487741      0.487741      0.650535      0.756076
         0.34      0.487741      0.487741      0.487742      0.653449      0.757514
         0.35      0.487741      0.487741      0.487745      0.656172       0.75892
         0.36      0.487741      0.487741      0.487752      0.658716        0.7603
         0.37      0.487741      0.487741      0.487766      0.661096      0.761655
         0.38      0.487741      0.487741      0.487794      0.663328      0.762991
         0.39      0.487741      0.487741      0.487848      0.665427      0.764309
          0.4      0.487741      0.487741       0.48794      0.667408      0.765604
         0.41      0.487741      0.487741      0.488082      0.669285      0.766877
         0.42      0.487741      0.487741      0.488273      0.671073       0.76813
         0.43      0.487741      0.487741      0.488494      0.672785       0.76936
         0.44      0.487741      0.487741      0.488761      0.674436      0.770569
         0.45      0.487741      0.487741      0.489274       0.67604      0.771759
         0.46      0.487741      0.487741      0.490297      0.677609       0.77293
         0.47      0.487741      0.487741      0.492003      0.679151      0.774083
         0.48      0.487741      0.487741      0.494274      0.680672      0.775218
         0.49      0.487741      0.487741      0.496406      0.682178      0.776333
          0.5      0.487741      0.487741       0.49787       0.68367      0.777429
         0.51      0.487741      0.487741      0.498742       0.68515      0.778506
         0.52      0.487741      0.487741      0.499875       0.68662      0.779568
         0.53      0.487741      0.487741      0.500672      0.688078      0.780615
         0.54      0.487741      0.487741      0.501376      0.689525      0.781648
         0.55      0.487741      0.487741      0.502314      0.690958      0.782665
         0.56      0.487741      0.487741      0.503734      0.692377      0.783668
         0.57      0.487741      0.487741      0.505586      0.693781      0.784656
         0.58      0.487741      0.487741      0.508193      0.695169       0.78563
         0.59      0.487741      0.487741      0.511491       0.69654       0.78659
          0.6      0.487741      0.487741      0.515333      0.697894      0.787538
         0.61      0.487741      0.487741      0.519443      0.699232      0.788472
         0.62      0.487741      0.487741      0.523584      0.700549      0.789393
         0.63      0.487741      0.487741      0.527599      0.701843        0.7903
         0.64      0.487741      0.487741      0.531456      0.703118      0.791195
         0.65      0.487741      0.487741      0.535189      0.704374      0.792079
         0.66      0.487741      0.487741      0.538781      0.705613      0.792952
         0.67      0.487741      0.487741      0.542204      0.706837      0.793814
         0.68      0.487741      0.487741      0.545477      0.708046      0.794665
         0.69      0.487741      0.487741      0.548632      0.709242      0.795505
          0.7      0.487741      0.487741       0.55168      0.710424      0.796333
         0.71      0.487741      0.487741      0.554615      0.711593      0.797149
         0.72      0.487741      0.487741      0.557441      0.712747      0.797955
         0.73      0.487741      0.487741      0.560169      0.713886      0.798751
         0.74      0.487741      0.487741      0.562807      0.715011      0.799537
         0.75      0.487741      0.487741      0.565357      0.716122      0.800313
         0.76      0.487741      0.487741      0.567822      0.717221      0.801081
         0.77      0.487741      0.487741      0.570205      0.718309      0.801839
         0.78      0.487741      0.487741      0.572509      0.719386      0.802589
         0.79      0.487741      0.487741       0.57474      0.720452       0.80333
          0.8      0.487741      0.487741      0.576902      0.721507      0.804064
         0.81      0.487741      0.487741      0.578999      0.722551      0.804789
         0.82      0.487741      0.487741      0.581035      0.723583      0.805505
         0.83      0.487741      0.487741      0.583014      0.724602      0.806213
         0.84      0.487741      0.487741       0.58494      0.725609      0.806913
         0.85      0.487741      0.487741       0.58682      0.726601      0.807606
         0.86      0.487741      0.487741      0.588655      0.727579      0.808292
         0.87      0.487741      0.487741      0.590446      0.728545      0.808972
         0.88      0.487741      0.487741      0.592193      0.729502      0.809644
         0.89      0.487741      0.487741      0.593896       0.73045      0.810309
          0.9      0.487741      0.487741      0.595556      0.731391      0.810967
         0.91      0.487741      0.487741      0.597174      0.732324      0.811617
         0.92      0.487741      0.487741       0.59875      0.733246       0.81226
         0.93      0.487741      0.487741      0.600285      0.734158      0.812896
         0.94      0.487741      0.487741      0.601782      0.735058      0.813526
         0.95      0.487741      0.487742      0.603243      0.735948      0.814149
         0.96      0.487741      0.487742      0.604672      0.736829      0.814767
         0.97      0.487741      0.487743      0.606073      0.737699       0.81538
         0.98      0.487741      0.487744      0.607448       0.73856      0.815988
         0.99      0.487741      0.487746      0.608799      0.739413      0.816591
            1      0.487741      0.487749      0.610126      0.740257      0.817188
         1.01      0.487741      0.487754      0.611432      0.741093      0.817779
         1.02      0.487741      0.487761      0.612718      0.741921      0.818365
         1.03      0.487741       0.48777      0.613985      0.742741      0.818944
         1.04      0.487741      0.487784      0.615233      0.743552      0.819518
         1.05      0.487741      0.487802      0.616462      0.744355      0.820087
         1.06      0.487741      0.487827      0.617674      0.745151       0.82065
         1.07      0.487741      0.487859      0.618868      0.745939      0.821209
         1.08      0.487741      0.487899      0.620045      0.746719      0.821763
         1.09      0.487741      0.487949      0.621205      0.747491      0.822311
          1.1      0.487741      0.488009      0.622349      0.748256      0.822853
         1.11      0.487741      0.488078      0.623478      0.749014       0.82339
         1.12      0.487741      0.488156      0.624592      0.749764      0.823922
         1.13      0.487741       0.48824      0.625693      0.750508      0.824449
         1.14      0.487741      0.488327      0.626782      0.751245      0.824971
         1.15      0.487741      0.488412      0.627861      0.751974       0.82549
         1.16      0.487741      0.488493      0.628929      0.752697      0.826004
         1.17      0.487741      0.488564      0.629988      0.753414      0.826514
         1.18      0.487741      0.488623      0.631038      0.754124      0.827019
         1.19      0.487741       0.48869      0.632079      0.754827       0.82752
          1.2      0.487741      0.488765      0.633112      0.755525      0.828016
         1.21      0.487741      0.488877      0.634138      0.756217      0.828508
         1.22      0.487741      0.489039      0.635154      0.756904      0.828995
         1.23      0.487741       0.48924      0.636163      0.757584      0.829477
         1.24      0.487741      0.489509      0.637163      0.758258      0.829955
         1.25      0.487741      0.489856      0.638155      0.758927      0.830429
         1.26      0.487741      0.490287       0.63914      0.759589        0.8309
         1.27      0.487741      0.490792      0.640117      0.760245      0.831368
         1.28      0.487741      0.491366      0.641087      0.760895      0.831832
         1.29      0.487741       0.49201      0.642049       0.76154      0.832293
          1.3      0.487741      0.492715      0.643004      0.762179       0.83275
         1.31      0.487741      0.493399      0.643951      0.762813      0.833204
         1.32      0.487741      0.494082      0.644891      0.763443      0.833654
         1.33      0.487741      0.494726      0.645824      0.764067      0.834099
         1.34      0.487741      0.495307       0.64675      0.764686      0.834541
         1.35      0.487741      0.495793      0.647669        0.7653      0.834978
         1.36      0.487741      0.496199      0.648581      0.765909      0.835412
         1.37      0.487741       0.49653      0.649486      0.766513      0.835842
         1.38      0.487741      0.496776      0.650384      0.767112       0.83627
         1.39      0.487741      0.496979      0.651275      0.767706      0.836694
          1.4      0.487741      0.497132      0.652158      0.768296      0.837116
         1.41      0.487741      0.497246      0.653035      0.768881      0.837534
         1.42      0.487741      0.497348      0.653904      0.769462       0.83795
         1.43      0.487741      0.497433      0.654766      0.770037      0.838362
         1.44      0.487741      0.497498       0.65562      0.770609      0.838771
         1.45      0.487741      0.497555      0.656465      0.771177      0.839177
         1.46      0.487741      0.497594      0.657301       0.77174       0.83958
         1.47      0.487741        0.4977      0.658127      0.772299      0.839979
         1.48      0.487741      0.498052      0.658942      0.772853      0.840376
         1.49      0.487741      0.498344      0.659747      0.773404      0.840771
          1.5      0.487741      0.498863      0.660542      0.773951      0.841162
         1.51      0.487741      0.499437      0.661327      0.774493      0.841551
         1.52      0.487741      0.499744      0.662103      0.775032      0.841937
         1.53      0.487741      0.500274       0.66287      0.775568       0.84232
         1.54      0.487741       0.50028       0.66363      0.776099        0.8427
         1.55      0.487741       0.50042      0.664383      0.776626      0.843078
         1.56      0.487741      0.500622       0.66513       0.77715      0.843454
         1.57      0.487741      0.500703      0.665873       0.77767      0.843827
         1.58      0.487741      0.501107      0.666613      0.778186      0.844198
         1.59      0.487741      0.501167      0.667351      0.778699      0.844566
          1.6      0.487741      0.501335      0.668087      0.779208      0.844931
         1.61      0.487741      0.501498      0.668823      0.779713      0.845295
         1.62      0.487741      0.502161      0.669559      0.780215      0.845656
         1.63      0.487741      0.502517      0.670295      0.780713      0.846014
         1.64      0.487741      0.503267       0.67103      0.781208      0.846371
         1.65      0.487741       0.50406      0.671764      0.781699      0.846725
         1.66      0.487741       0.50475      0.672497      0.782188      0.847077
         1.67      0.487741      0.506058      0.673228      0.782674      0.847426
         1.68      0.487741      0.506951      0.673956      0.783156      0.847774
         1.69      0.487741      0.508367       0.67468      0.783637      0.848119
          1.7      0.487741      0.509596      0.675399      0.784114      0.848462
         1.71      0.487741      0.511161      0.676113      0.784589      0.848804
         1.72      0.487742      0.512753      0.676821      0.785062      0.849142
         1.73      0.487742      0.514354      0.677522      0.785533      0.849479
         1.74      0.487742      0.516076      0.678217      0.786001      0.849814
         1.75      0.487743      0.517773      0.678905      0.786467      0.850146
         1.76      0.487744      0.519427      0.679585      0.786931      0.850477
         1.77      0.487745      0.521042      0.680259      0.787391      0.850805
         1.78      0.487747      0.522594      0.680925      0.787848      0.851132
         1.79      0.487749      0.523821      0.681584      0.788301      0.851457
          1.8      0.487753      0.525388      0.682237       0.78875       0.85178
         1.81      0.487757      0.526857      0.682884      0.789195      0.852101
         1.82      0.487762      0.528274      0.683526      0.789635       0.85242
         1.83      0.487769      0.529321      0.684163      0.790072      0.852738
         1.84      0.487777      0.530747      0.684796      0.790505      0.853054
         1.85      0.487788      0.532134      0.685425      0.790937      0.853368
         1.86      0.487802      0.533436       0.68605      0.791368       0.85368
         1.87      0.487819      0.534495      0.686673      0.791799       0.85399
         1.88      0.487839      0.535857      0.687292      0.792232      0.854299
         1.89      0.487864       0.53716      0.687908      0.792666      0.854606
          1.9      0.487895      0.538153      0.688521      0.793102      0.854911
         1.91       0.48793      0.539441      0.689131       0.79354      0.855215
         1.92      0.487972      0.540692      0.689738      0.793977      0.855518
         1.93      0.488021      0.541649      0.690342      0.794414      0.855819
         1.94      0.488077      0.542853      0.690943      0.794846      0.856119
         1.95      0.488141      0.543902      0.691541      0.795272      0.856418
         1.96      0.488213      0.544914      0.692134       0.79569      0.856716
         1.97      0.488292      0.546148      0.692724      0.796097      0.857014
         1.98      0.488378      0.546881       0.69331      0.796491       0.85731
         1.99      0.488471      0.548021      0.693892      0.796873      0.857605
            2      0.488569      0.548803      0.694469      0.797243      0.857898
         2.01      0.488682      0.549872      0.695042      0.797601       0.85819
         2.02      0.488796       0.55074      0.695611      0.797951       0.85848
         2.03      0.488912      0.551679      0.696177      0.798294      0.858769
         2.04      0.489015      0.552597      0.696742      0.798634      0.859055
         2.05      0.489125      0.553454      0.697308      0.798975      0.859338
         2.06       0.48923      0.554359      0.697879      0.799318       0.85962
         2.07      0.489329      0.555199      0.698457      0.799667      0.859899
         2.08      0.489413      0.556067      0.699047      0.800024      0.860177
         2.09      0.489504      0.556911      0.699646      0.800388      0.860454
          2.1       0.48959      0.557712      0.700255      0.800761      0.860731
         2.11      0.489663      0.558587      0.700868      0.801142      0.861008
         2.12      0.489745      0.559295      0.701482      0.801528      0.861288
         2.13      0.489816      0.560222      0.702095      0.801919      0.861568
         2.14      0.489902      0.560882      0.702704      0.802313      0.861851
         2.15      0.489995      0.561814      0.703308      0.802708      0.862135
         2.16      0.490112      0.562442      0.703909      0.803102       0.86242
         2.17      0.490211      0.563229      0.704505      0.803493      0.862703
         2.18      0.490365       0.56397      0.705099       0.80388      0.862985
         2.19      0.490535      0.564599      0.705689      0.804262      0.863263
          2.2      0.490747      0.565481      0.706277      0.804638      0.863535
         2.21      0.490996      0.566059      0.706863      0.805008        0.8638
         2.22      0.491285      0.566776      0.707447      0.805372      0.864057
         2.23      0.491629      0.567503      0.708029      0.805729      0.864306
         2.24      0.492021      0.568074      0.708607      0.806082      0.864547
         2.25      0.492472      0.568885      0.709182      0.806429      0.864781
         2.26      0.492973      0.569479      0.709754      0.806772      0.865009
         2.27      0.493524      0.570111      0.710323      0.807113      0.865234
         2.28      0.494133      0.570858      0.710889       0.80745      0.865456
         2.29      0.494786      0.571374      0.711453      0.807786      0.865678
          2.3       0.49549      0.572115      0.712015       0.80812      0.865903
         2.31      0.496227      0.572704      0.712574      0.808454      0.866131
         2.32      0.496989      0.573278      0.713131      0.808787      0.866364
         2.33      0.498218      0.574031      0.713684       0.80912      0.866602
         2.34      0.499714      0.574482      0.714234      0.809453      0.866846
         2.35      0.500712      0.575156       0.71478      0.809787      0.867094
         2.36      0.502109      0.575751      0.715323      0.810123      0.867347
         2.37      0.503252      0.576255      0.715862      0.810461      0.867602
         2.38      0.504354      0.576977      0.716397      0.810801       0.86786
         2.39      0.505449      0.577439      0.716928      0.811146      0.868118
          2.4      0.506446      0.578021      0.717456      0.811493      0.868377
         2.41      0.507424      0.578655      0.717982      0.811845      0.868634
         2.42      0.508401      0.579079      0.718502      0.812199       0.86889
         2.43      0.509238      0.579761      0.719017      0.812556      0.869143
         2.44        0.5102      0.580247       0.71953      0.812915      0.869395
         2.45       0.51089      0.580763      0.720042      0.813275      0.869645
         2.46      0.511816      0.581427      0.720552      0.813636      0.869893
         2.47      0.512385      0.581791      0.721055      0.813996      0.870141
         2.48      0.513226      0.582423      0.721553      0.814355      0.870389
         2.49      0.513716       0.58291      0.722049      0.814713      0.870638
          2.5      0.514415      0.583379      0.722543       0.81507      0.870888
         2.51      0.514881      0.584035       0.72303      0.815425       0.87114
         2.52      0.515365      0.584384      0.723511      0.815778      0.871393
         2.53      0.515926      0.584932      0.723996      0.816131      0.871648
         2.54      0.516237      0.585483      0.724486      0.816482      0.871905
         2.55      0.516893      0.585851      0.724978      0.816832      0.872162
         2.56      0.517117       0.58645       0.72547       0.81718       0.87242
         2.57      0.517372      0.586907       0.72597      0.817527      0.872678
         2.58       0.51791      0.587341      0.726483      0.817873      0.872937
         2.59      0.518109      0.587939      0.726991      0.818218      0.873196
          2.6      0.518324      0.588298      0.727483      0.818562      0.873456
         2.61      0.518812      0.588801      0.727966      0.818905      0.873716
         2.62      0.518988      0.589342      0.728449      0.819248      0.873975
         2.63      0.519159      0.589679      0.728923      0.819591      0.874235
         2.64      0.519321      0.590194      0.729367      0.819933      0.874493
         2.65       0.51979      0.590687      0.729787      0.820276       0.87475
         2.66      0.519933      0.591026      0.730167      0.820619      0.875007
         2.67      0.520073      0.591542      0.730531      0.820961      0.875262
         2.68      0.520213      0.592009      0.730851      0.821303      0.875517
         2.69      0.520672      0.592341      0.731132      0.821644      0.875772
          2.7      0.520804      0.592891       0.73143      0.821985      0.876025
         2.71      0.520933      0.593244      0.731749      0.822324      0.876279
         2.72      0.521068      0.593659      0.732068      0.822661      0.876531
         2.73      0.521524      0.594207      0.732392      0.822997      0.876783
         2.74      0.521653      0.594464      0.732736      0.823331      0.877034
         2.75      0.521785      0.594966       0.73309      0.823663      0.877285
         2.76      0.521911      0.595355      0.733431      0.823992      0.877534
         2.77      0.522383       0.59572      0.733753      0.824318      0.877783
         2.78      0.522517      0.596236      0.734031      0.824641      0.878031
         2.79      0.522664      0.596513      0.734278      0.824962      0.878278
          2.8      0.523006      0.596947      0.734553       0.82528      0.878525
         2.81      0.523279       0.59737      0.734835      0.825596       0.87877
         2.82      0.523422      0.597667      0.735131      0.825911      0.879015
         2.83      0.523563      0.598151      0.735443      0.826223       0.87926
         2.84       0.52405      0.598483      0.735748      0.826535      0.879503
         2.85      0.524205      0.598847       0.73604      0.826845      0.879747
         2.86      0.524356      0.599329      0.736304      0.827157       0.87999
         2.87      0.524834      0.599596      0.736586      0.827469      0.880233
         2.88      0.524983      0.600003       0.73686      0.827783      0.880476
         2.89      0.525144      0.600421      0.737136      0.828099       0.88072
          2.9      0.525426      0.600689      0.737398      0.828416      0.880963
         2.91      0.525781      0.601158       0.73766      0.828735      0.881206
         2.92      0.525934      0.601447      0.737941      0.829056      0.881448
         2.93      0.526089       0.60181       0.73822      0.829378       0.88169
         2.94      0.526575      0.602254      0.738511      0.829701      0.881932
         2.95      0.526739      0.602497      0.738803      0.830025      0.882172
         2.96      0.526898      0.602895      0.739063       0.83035      0.882412
         2.97      0.527388      0.603332      0.739306      0.830676      0.882651
         2.98      0.527557       0.60355      0.739547      0.831002      0.882888
         2.99      0.527722      0.603967      0.739812      0.831327      0.883123
            3      0.528224      0.604348      0.740132      0.831651      0.883356
         3.01      0.528403      0.604595      0.740433      0.831973      0.883587
         3.02      0.528569       0.60503      0.740692      0.832293      0.883816
         3.03      0.529111      0.605381      0.740939      0.832612      0.884044
         3.04      0.529295      0.605649      0.741236      0.832928       0.88427
         3.05      0.529572      0.606066      0.741502      0.833243      0.884495
         3.06      0.530071      0.606436      0.741695      0.833556      0.884719
         3.07      0.530283      0.606698      0.741937      0.833868      0.884942
         3.08      0.530829      0.607098      0.742211      0.834178      0.885164
         3.09      0.531109      0.607523      0.742529      0.834486      0.885386
          3.1      0.531409      0.607765      0.742803      0.834794      0.885609
         3.11      0.531989      0.608125      0.743034      0.835101      0.885832
         3.12      0.532255      0.608562      0.743295      0.835407      0.886056
         3.13      0.532941      0.608802      0.743611      0.835714      0.886282
         3.14       0.53323      0.609174      0.743888       0.83602      0.886508
         3.15      0.533956      0.609619      0.744058      0.836327      0.886735
         3.16      0.534272       0.60983       0.74431      0.836633      0.886964
         3.17       0.53504      0.610243      0.744604      0.836939      0.887193
         3.18        0.5354      0.610642      0.744874      0.837245      0.887423
         3.19       0.53624      0.610882      0.745137       0.83755      0.887654
          3.2      0.536614      0.611341      0.745375      0.837855      0.887885
         3.21      0.537535       0.61168      0.745609       0.83816      0.888117
         3.22       0.53799      0.611991      0.745837      0.838464       0.88835
         3.23      0.538979      0.612452      0.746094      0.838769      0.888583
         3.24      0.539514      0.612729      0.746335      0.839073      0.888815
         3.25      0.540561      0.613106      0.746549      0.839376      0.889047
         3.26      0.541176      0.613569       0.74674      0.839679      0.889277
         3.27      0.542272      0.613807      0.747001       0.83998      0.889508
         3.28      0.542962      0.614219      0.747256       0.84028      0.889737
         3.29       0.54415      0.614675      0.747496      0.840579      0.889965
          3.3      0.544869       0.61492      0.747749      0.840877      0.890193
         3.31      0.546068      0.615341      0.747923      0.841175       0.89042
         3.32       0.54689      0.615807      0.748161      0.841473      0.890647
         3.33      0.548114      0.616062      0.748413       0.84177      0.890873
         3.34      0.549053      0.616482      0.748667      0.842066      0.891099
         3.35      0.550252      0.616943        0.7489      0.842363      0.891325
         3.36      0.551523      0.617224      0.749087      0.842659      0.891551
         3.37      0.552481      0.617619      0.749311      0.842956      0.891777
         3.38      0.553796      0.618093      0.749548      0.843252      0.892003
         3.39      0.554983      0.618404      0.749786      0.843548       0.89223
          3.4      0.556116      0.618789      0.749988      0.843844      0.892456
         3.41      0.557464      0.619273      0.750246       0.84414      0.892684
         3.42      0.558761      0.619605      0.750476      0.844438      0.892911
         3.43      0.559854      0.619983      0.750714      0.844737      0.893139
         3.44      0.561216      0.620471      0.750961      0.845038      0.893366
         3.45      0.562586      0.620838      0.751127      0.845341      0.893594
         3.46      0.563703      0.621205      0.751349      0.845644      0.893821
         3.47      0.565007      0.621694      0.751595      0.845948      0.894048
         3.48      0.566376      0.622091      0.751787      0.846252      0.894275
         3.49      0.567745      0.622436      0.752039      0.846557      0.894502
          3.5      0.568974      0.622942      0.752271      0.846863      0.894729
         3.51      0.570145      0.623365      0.752481      0.847169      0.894956
         3.52      0.571504      0.623705      0.752651      0.847477      0.895183
         3.53      0.572851      0.624216      0.752896      0.847786       0.89541