# Probe 0 (1 0 0)
# Probe 1 (110 0 0)
# Probe 2 (200 0 0)
# Probe 3 (242.5 0 0)
# Probe 4 (255 0 0)
#       Probe             0             1             2             3             4
#        Time
            0   3.59583e+06   3.59583e+06   3.59583e+06   3.59583e+06   3.59583e+06
         0.01   3.56183e+06   3.56183e+06   3.56183e+06   3.56183e+06   2.73548e+06
         0.02   3.56183e+06   3.56183e+06   3.56183e+06   3.56183e+06   1.88922e+06
         0.03   3.56183e+06   3.56183e+06   3.56183e+06   3.56183e+06   1.59695e+06
         0.04   3.56183e+06   3.56183e+06   3.56183e+06   3.56183e+06   1.45352e+06
         0.05   3.56183e+06   3.56183e+06   3.56183e+06   3.56183e+06     1.371e+06
         0.06   3.56183e+06   3.56183e+06   3.56183e+06   3.56181e+06   1.32229e+06
         0.07   3.56183e+06   3.56183e+06   3.56183e+06   3.56139e+06   1.29488e+06
         0.08   3.56183e+06   3.56183e+06   3.56183e+06   3.55821e+06    1.2824e+06
         0.09   3.56183e+06   3.56183e+06   3.56183e+06    3.5446e+06   1.27994e+06
          0.1   3.56183e+06   3.56183e+06   3.56183e+06   3.48184e+06   1.28347e+06
         0.11   3.56183e+06   3.56183e+06   3.56183e+06   3.28289e+06   1.29015e+06
         0.12   3.56183e+06   3.56183e+06   3.56183e+06     3.279e+06   1.29789e+06
         0.13   3.56183e+06   3.56183e+06   3.56183e+06   3.23215e+06   1.30544e+06
         0.14   3.56183e+06   3.56183e+06   3.56183e+06   3.12588e+06    1.3121e+06
         0.15   3.56183e+06   3.56183e+06   3.56183e+06   2.98419e+06   1.31748e+06
         0.16   3.56183e+06   3.56183e+06   3.56183e+06   2.84159e+06   1.32148e+06
         0.17   3.56183e+06   3.56183e+06   3.56183e+06   2.71453e+06   1.32415e+06
         0.18   3.56183e+06   3.56183e+06   3.56183e+06   2.60601e+06   1.32566e+06
         0.19   3.56183e+06   3.56183e+06   3.56183e+06   2.51403e+06   1.32619e+06
          0.2   3.56183e+06   3.56183e+06   3.56183e+06   2.43576e+06   1.32594e+06
         0.21   3.56183e+06   3.56183e+06   3.56183e+06   2.36876e+06   1.32508e+06
         0.22   3.56183e+06   3.56183e+06   3.56183e+06   2.31105e+06   1.32376e+06
         0.23   3.56183e+06   3.56183e+06   3.56183e+06   2.26105e+06   1.32211e+06
         0.24   3.56183e+06   3.56183e+06   3.56183e+06   2.21751e+06   1.32022e+06
         0.25   3.56183e+06   3.56183e+06   3.56183e+06   2.17943e+06   1.31817e+06
         0.26   3.56183e+06   3.56183e+06   3.56183e+06     2.146e+06   1.31602e+06
         0.27   3.56183e+06   3.56183e+06   3.56183e+06   2.11657e+06    1.3138e+06
         0.28   3.56183e+06   3.56183e+06   3.56183e+06   2.09061e+06   1.31154e+06
         0.29   3.56183e+06   3.56183e+06   3.56183e+06   2.06767e+06   1.30926e+06
          0.3   3.56183e+06   3.56183e+06   3.56183e+06   2.04739e+06   1.30698e+06
         0.31   3.56183e+06   3.56183e+06   3.56183e+06   2.02946e+06    1.3047e+06
         0.32   3.56183e+06   3.56183e+06   3.56182e+06   2.01365e+06   1.30243e+06
         0.33   3.56183e+06   3.56183e+06   3.56181e+06   1.99974e+06   1.30017e+06
         0.34   3.56183e+06   3.56183e+06   3.56177e+06   1.98757e+06   1.29794e+06
         0.35   3.56183e+06   3.56183e+06   3.56168e+06   1.97699e+06   1.29573e+06
         0.36   3.56183e+06   3.56183e+06   3.56147e+06   1.96785e+06   1.29354e+06
         0.37   3.56183e+06   3.56183e+06   3.56104e+06   1.96002e+06   1.29137e+06
         0.38   3.56183e+06   3.56183e+06   3.56022e+06   1.95337e+06   1.28922e+06
         0.39   3.56183e+06   3.56183e+06   3.55876e+06   1.94775e+06    1.2871e+06
          0.4   3.56183e+06   3.56183e+06   3.55638e+06   1.94301e+06     1.285e+06
         0.41   3.56183e+06   3.56183e+06   3.55291e+06     1.939e+06   1.28292e+06
         0.42   3.56183e+06   3.56183e+06   3.54844e+06   1.93555e+06   1.28086e+06
         0.43   3.56183e+06   3.56183e+06   3.54357e+06   1.93253e+06   1.27882e+06
         0.44   3.56183e+06   3.56183e+06   3.53884e+06   1.92981e+06   1.27681e+06
         0.45   3.56183e+06   3.56183e+06   3.52915e+06   1.92728e+06   1.27482e+06
         0.46   3.56183e+06   3.56183e+06   3.51172e+06   1.92484e+06   1.27284e+06
         0.47   3.56183e+06   3.56183e+06   3.48286e+06   1.92242e+06   1.27089e+06
         0.48   3.56183e+06   3.56183e+06   3.44591e+06   1.91998e+06   1.26896e+06
         0.49   3.56183e+06   3.56183e+06   3.41279e+06   1.91749e+06   1.26705e+06
          0.5   3.56183e+06   3.56183e+06   3.40506e+06   1.91492e+06   1.26518e+06
         0.51   3.56183e+06   3.56183e+06    3.3906e+06   1.91228e+06   1.26334e+06
         0.52   3.56183e+06   3.56183e+06   3.38515e+06   1.90956e+06   1.26151e+06
         0.53   3.56183e+06   3.56183e+06   3.38202e+06   1.90678e+06   1.25969e+06
         0.54   3.56183e+06   3.56183e+06   3.38317e+06   1.90394e+06   1.25787e+06
         0.55   3.56183e+06   3.56183e+06   3.36996e+06   1.90106e+06   1.25606e+06
         0.56   3.56183e+06   3.56183e+06   3.36594e+06   1.89815e+06   1.25427e+06
         0.57   3.56183e+06   3.56183e+06   3.34701e+06   1.89522e+06   1.25249e+06
         0.58   3.56183e+06   3.56183e+06   3.32602e+06   1.89228e+06   1.25073e+06
         0.59   3.56183e+06   3.56183e+06   3.29568e+06   1.88934e+06   1.24898e+06
          0.6   3.56183e+06   3.56183e+06   3.26125e+06   1.88641e+06   1.24724e+06
         0.61   3.56183e+06   3.56183e+06   3.22395e+06   1.88348e+06   1.24552e+06
         0.62   3.56183e+06   3.56183e+06   3.18746e+06   1.88058e+06   1.24381e+06
         0.63   3.56183e+06   3.56183e+06   3.15311e+06   1.87772e+06   1.24212e+06
         0.64   3.56183e+06   3.56183e+06   3.12069e+06   1.87489e+06   1.24043e+06
         0.65   3.56183e+06   3.56183e+06   3.08991e+06   1.87208e+06   1.23877e+06
         0.66   3.56183e+06   3.56183e+06   3.06133e+06   1.86929e+06   1.23711e+06
         0.67   3.56183e+06   3.56183e+06   3.03515e+06   1.86653e+06   1.23547e+06
         0.68   3.56183e+06   3.56183e+06   3.01086e+06   1.86379e+06   1.23384e+06
         0.69   3.56183e+06   3.56183e+06   2.98803e+06   1.86107e+06   1.23222e+06
          0.7   3.56183e+06   3.56183e+06   2.96662e+06   1.85838e+06   1.23061e+06
         0.71   3.56183e+06   3.56183e+06   2.94664e+06   1.85571e+06   1.22901e+06
         0.72   3.56183e+06   3.56183e+06   2.92797e+06   1.85306e+06   1.22742e+06
         0.73   3.56183e+06   3.56183e+06   2.91039e+06   1.85044e+06   1.22585e+06
         0.74   3.56183e+06   3.56183e+06   2.89383e+06   1.84784e+06   1.22428e+06
         0.75   3.56183e+06   3.56183e+06   2.87822e+06   1.84526e+06   1.22273e+06
         0.76   3.56183e+06   3.56183e+06   2.86352e+06   1.84267e+06   1.22119e+06
         0.77   3.56183e+06   3.56183e+06   2.84968e+06   1.84009e+06   1.21965e+06
         0.78   3.56183e+06   3.56183e+06   2.83666e+06    1.8375e+06   1.21813e+06
         0.79   3.56183e+06   3.56183e+06   2.82439e+06   1.83492e+06   1.21662e+06
          0.8   3.56183e+06   3.56183e+06   2.81282e+06   1.83236e+06   1.21511e+06
         0.81   3.56183e+06   3.56183e+06   2.80191e+06   1.82981e+06   1.21362e+06
         0.82   3.56183e+06   3.56183e+06   2.79164e+06   1.82728e+06   1.21214e+06
         0.83   3.56183e+06   3.56183e+06   2.78194e+06   1.82477e+06   1.21066e+06
         0.84   3.56183e+06   3.56183e+06   2.77276e+06    1.8223e+06   1.20918e+06
         0.85   3.56183e+06   3.56183e+06   2.76403e+06   1.81989e+06   1.20771e+06
         0.86   3.56183e+06   3.56183e+06   2.75573e+06   1.81752e+06   1.20623e+06
         0.87   3.56183e+06   3.56183e+06   2.74786e+06   1.81517e+06   1.20474e+06
         0.88   3.56183e+06   3.56183e+06   2.74042e+06   1.81282e+06   1.20326e+06
         0.89   3.56183e+06   3.56183e+06   2.73337e+06   1.81047e+06   1.20177e+06
          0.9   3.56183e+06   3.56183e+06   2.72673e+06    1.8081e+06   1.20029e+06
         0.91   3.56183e+06   3.56183e+06   2.72046e+06   1.80574e+06   1.19881e+06
         0.92   3.56183e+06   3.56183e+06   2.71455e+06   1.80341e+06   1.19735e+06
         0.93   3.56183e+06   3.56182e+06   2.70901e+06    1.8011e+06    1.1959e+06
         0.94   3.56183e+06   3.56182e+06   2.70379e+06   1.79882e+06   1.19448e+06
         0.95   3.56183e+06   3.56181e+06   2.69888e+06   1.79656e+06   1.19307e+06
         0.96   3.56183e+06    3.5618e+06   2.69422e+06   1.79432e+06   1.19167e+06
         0.97   3.56183e+06   3.56177e+06   2.68981e+06   1.79209e+06   1.19027e+06
         0.98   3.56183e+06   3.56174e+06   2.68562e+06   1.78988e+06   1.18886e+06
         0.99   3.56183e+06   3.56168e+06   2.68164e+06   1.78768e+06   1.18745e+06
            1   3.56183e+06   3.56159e+06   2.67788e+06   1.78551e+06   1.18605e+06
         1.01   3.56183e+06   3.56147e+06   2.67432e+06   1.78335e+06   1.18465e+06
         1.02   3.56183e+06   3.56129e+06   2.67093e+06   1.78122e+06   1.18327e+06
         1.03   3.56183e+06   3.56104e+06    2.6677e+06    1.7791e+06   1.18191e+06
         1.04   3.56183e+06    3.5607e+06   2.66463e+06   1.77701e+06   1.18055e+06
         1.05   3.56183e+06   3.56023e+06   2.66168e+06   1.77492e+06    1.1792e+06
         1.06   3.56183e+06   3.55963e+06   2.65884e+06   1.77285e+06   1.17785e+06
         1.07   3.56183e+06   3.55885e+06    2.6561e+06   1.77078e+06   1.17652e+06
         1.08   3.56183e+06   3.55788e+06   2.65344e+06   1.76873e+06   1.17519e+06
         1.09   3.56183e+06    3.5567e+06   2.65085e+06   1.76668e+06   1.17387e+06
          1.1   3.56183e+06   3.55531e+06   2.64831e+06   1.76464e+06   1.17256e+06
         1.11   3.56183e+06   3.55371e+06   2.64581e+06   1.76262e+06   1.17126e+06
         1.12   3.56183e+06   3.55196e+06   2.64334e+06   1.76061e+06   1.16997e+06
         1.13   3.56183e+06    3.5501e+06   2.64088e+06   1.75863e+06   1.16869e+06
         1.14   3.56183e+06    3.5482e+06   2.63842e+06   1.75666e+06   1.16742e+06
         1.15   3.56183e+06   3.54637e+06   2.63597e+06   1.75471e+06   1.16616e+06
         1.16   3.56183e+06    3.5447e+06   2.63352e+06   1.75277e+06    1.1649e+06
         1.17   3.56183e+06   3.54326e+06   2.63108e+06   1.75085e+06   1.16364e+06
         1.18   3.56183e+06   3.54207e+06   2.62863e+06   1.74893e+06   1.16239e+06
         1.19   3.56183e+06   3.54141e+06    2.6262e+06   1.74703e+06   1.16115e+06
          1.2   3.56183e+06   3.53959e+06   2.62376e+06   1.74513e+06   1.15991e+06
         1.21   3.56183e+06   3.53771e+06   2.62134e+06   1.74323e+06   1.15868e+06
         1.22   3.56183e+06   3.53557e+06   2.61894e+06   1.74135e+06   1.15747e+06
         1.23   3.56183e+06   3.53165e+06   2.61655e+06   1.73948e+06   1.15626e+06
         1.24   3.56183e+06   3.52706e+06   2.61417e+06   1.73763e+06   1.15506e+06
         1.25   3.56183e+06   3.52161e+06   2.61181e+06   1.73579e+06   1.15387e+06
         1.26   3.56183e+06   3.51516e+06   2.60945e+06   1.73397e+06   1.15269e+06
         1.27   3.56183e+06   3.50708e+06   2.60709e+06   1.73217e+06   1.15151e+06
         1.28   3.56183e+06   3.49751e+06   2.60475e+06   1.73038e+06   1.15034e+06
         1.29   3.56183e+06   3.48734e+06   2.60241e+06    1.7286e+06   1.14917e+06
          1.3   3.56183e+06   3.47692e+06   2.60008e+06   1.72684e+06     1.148e+06
         1.31   3.56183e+06    3.4659e+06   2.59776e+06   1.72508e+06   1.14684e+06
         1.32   3.56183e+06    3.4552e+06   2.59546e+06   1.72333e+06   1.14569e+06
         1.33   3.56183e+06   3.44555e+06   2.59317e+06   1.72159e+06   1.14455e+06
         1.34   3.56183e+06   3.43743e+06    2.5909e+06   1.71986e+06   1.14342e+06
         1.35   3.56183e+06   3.42993e+06   2.58864e+06   1.71814e+06   1.14229e+06
         1.36   3.56183e+06    3.4243e+06   2.58639e+06   1.71643e+06   1.14118e+06
         1.37   3.56183e+06   3.42036e+06   2.58416e+06   1.71473e+06   1.14007e+06
         1.38   3.56183e+06   3.41666e+06   2.58196e+06   1.71304e+06   1.13897e+06
         1.39   3.56183e+06    3.4146e+06   2.57976e+06   1.71137e+06   1.13788e+06
          1.4   3.56183e+06   3.41271e+06   2.57758e+06    1.7097e+06   1.13679e+06
         1.41   3.56183e+06   3.41077e+06    2.5754e+06   1.70805e+06   1.13571e+06
         1.42   3.56183e+06   3.40977e+06   2.57322e+06   1.70642e+06   1.13463e+06
         1.43   3.56183e+06   3.40911e+06   2.57105e+06   1.70479e+06   1.13356e+06
         1.44   3.56183e+06   3.40792e+06   2.56889e+06   1.70317e+06   1.13249e+06
         1.45   3.56183e+06   3.40704e+06   2.56673e+06   1.70156e+06   1.13143e+06
         1.46   3.56183e+06   3.40697e+06   2.56459e+06   1.69996e+06   1.13038e+06
         1.47   3.56183e+06   3.40274e+06   2.56246e+06   1.69837e+06   1.12934e+06
         1.48   3.56183e+06   3.40723e+06   2.56036e+06   1.69679e+06    1.1283e+06
         1.49   3.56183e+06   3.39837e+06   2.55826e+06   1.69521e+06   1.12727e+06
          1.5   3.56183e+06   3.40223e+06   2.55619e+06   1.69364e+06   1.12624e+06
         1.51   3.56183e+06   3.39334e+06   2.55413e+06   1.69208e+06   1.12523e+06
         1.52   3.56183e+06   3.39478e+06   2.55208e+06   1.69052e+06   1.12422e+06
         1.53   3.56183e+06   3.39623e+06   2.55004e+06   1.68898e+06   1.12321e+06
         1.54   3.56183e+06   3.38969e+06   2.54802e+06   1.68745e+06   1.12221e+06
         1.55   3.56183e+06   3.38644e+06   2.54601e+06   1.68593e+06   1.12121e+06
         1.56   3.56183e+06   3.39187e+06     2.544e+06   1.68442e+06   1.12022e+06
         1.57   3.56183e+06   3.38745e+06   2.54201e+06   1.68292e+06   1.11924e+06
         1.58   3.56183e+06   3.39143e+06   2.54003e+06   1.68143e+06   1.11825e+06
         1.59   3.56183e+06   3.38784e+06   2.53805e+06   1.67994e+06   1.11728e+06
          1.6   3.56183e+06   3.38557e+06   2.53608e+06   1.67847e+06    1.1163e+06
         1.61   3.56183e+06   3.38259e+06   2.53412e+06   1.67701e+06   1.11534e+06
         1.62   3.56183e+06   3.38586e+06   2.53217e+06   1.67555e+06   1.11437e+06
         1.63   3.56183e+06    3.3755e+06   2.53022e+06    1.6741e+06   1.11342e+06
         1.64   3.56183e+06   3.37969e+06   2.52828e+06   1.67266e+06   1.11247e+06
         1.65   3.56183e+06   3.37134e+06   2.52636e+06   1.67123e+06   1.11152e+06
         1.66   3.56183e+06   3.36799e+06   2.52444e+06   1.66981e+06   1.11058e+06
         1.67   3.56183e+06   3.37179e+06   2.52254e+06    1.6684e+06   1.10965e+06
         1.68   3.56183e+06    3.3584e+06   2.52065e+06   1.66699e+06   1.10872e+06
         1.69   3.56182e+06   3.35544e+06   2.51877e+06    1.6656e+06    1.1078e+06
          1.7   3.56182e+06   3.34804e+06    2.5169e+06   1.66421e+06   1.10688e+06
         1.71   3.56182e+06   3.34169e+06   2.51504e+06   1.66284e+06   1.10597e+06
         1.72   3.56181e+06    3.3373e+06   2.51319e+06   1.66147e+06   1.10506e+06
         1.73    3.5618e+06   3.33166e+06   2.51134e+06   1.66011e+06   1.10416e+06
         1.74   3.56179e+06   3.32393e+06    2.5095e+06   1.65875e+06   1.10326e+06
         1.75   3.56177e+06    3.3177e+06   2.50766e+06    1.6574e+06   1.10237e+06
         1.76   3.56174e+06   3.31163e+06   2.50583e+06   1.65605e+06   1.10149e+06
         1.77   3.56171e+06   3.30605e+06   2.50401e+06   1.65471e+06   1.10061e+06
         1.78   3.56166e+06   3.30164e+06   2.50221e+06   1.65338e+06   1.09973e+06
         1.79    3.5616e+06   3.29216e+06   2.50041e+06   1.65206e+06   1.09886e+06
          1.8   3.56152e+06   3.28606e+06   2.49862e+06   1.65074e+06     1.098e+06
         1.81   3.56142e+06   3.28258e+06   2.49685e+06   1.64943e+06   1.09714e+06
         1.82   3.56129e+06   3.27922e+06   2.49508e+06   1.64813e+06   1.09628e+06
         1.83   3.56112e+06   3.27349e+06   2.49332e+06   1.64684e+06   1.09543e+06
         1.84    3.5609e+06   3.26552e+06   2.49158e+06   1.64556e+06   1.09458e+06
         1.85   3.56063e+06   3.26244e+06   2.48984e+06   1.64428e+06   1.09374e+06
         1.86   3.56029e+06   3.26529e+06   2.48811e+06   1.64301e+06    1.0929e+06
         1.87   3.55987e+06   3.25035e+06   2.48639e+06   1.64175e+06   1.09207e+06
         1.88   3.55937e+06   3.24704e+06   2.48467e+06    1.6405e+06   1.09123e+06
         1.89   3.55876e+06   3.24714e+06   2.48297e+06   1.63925e+06   1.09041e+06
          1.9   3.55803e+06   3.23596e+06   2.48127e+06   1.63801e+06   1.08959e+06
         1.91   3.55718e+06   3.23324e+06   2.47958e+06   1.63678e+06   1.08877e+06
         1.92   3.55618e+06   3.23584e+06    2.4779e+06   1.63555e+06   1.08796e+06
         1.93   3.55502e+06   3.22265e+06   2.47623e+06   1.63432e+06   1.08716e+06
         1.94   3.55371e+06   3.22006e+06   2.47456e+06    1.6331e+06   1.08636e+06
         1.95   3.55223e+06   3.21978e+06    2.4729e+06   1.63188e+06   1.08557e+06
         1.96   3.55058e+06   3.21026e+06   2.47125e+06   1.63067e+06   1.08478e+06
         1.97   3.54876e+06   3.21337e+06   2.46961e+06   1.62946e+06   1.08399e+06
         1.98    3.5468e+06   3.20167e+06   2.46797e+06   1.62826e+06   1.08321e+06
         1.99   3.54471e+06   3.19897e+06   2.46634e+06   1.62707e+06   1.08243e+06
            2   3.54251e+06   3.19597e+06   2.46472e+06   1.62588e+06   1.08165e+06
         2.01    3.5409e+06   3.19043e+06    2.4631e+06   1.62471e+06   1.08088e+06
         2.02   3.53926e+06   3.19108e+06   2.46147e+06   1.62354e+06   1.08011e+06
         2.03   3.53764e+06    3.1822e+06   2.45983e+06   1.62238e+06   1.07934e+06
         2.04   3.53543e+06   3.18455e+06   2.45813e+06   1.62123e+06   1.07858e+06
         2.05   3.53392e+06    3.1745e+06   2.45635e+06   1.62009e+06   1.07782e+06
         2.06   3.53251e+06   3.17683e+06   2.45445e+06   1.61895e+06   1.07706e+06
         2.07   3.53122e+06    3.1674e+06   2.45237e+06   1.61783e+06   1.07631e+06
         2.08   3.52941e+06   3.16943e+06   2.45011e+06   1.61671e+06   1.07556e+06
         2.09   3.52835e+06   3.16076e+06   2.44767e+06    1.6156e+06   1.07482e+06
          2.1    3.5274e+06   3.16173e+06   2.44511e+06   1.61449e+06   1.07408e+06
         2.11   3.52587e+06   3.15428e+06   2.44246e+06    1.6134e+06   1.07334e+06
         2.12   3.52498e+06   3.15298e+06    2.4398e+06   1.61231e+06   1.07261e+06
         2.13   3.52341e+06   3.14811e+06   2.43716e+06   1.61122e+06   1.07189e+06
         2.14   3.52234e+06   3.14396e+06   2.43457e+06   1.61014e+06   1.07116e+06
         2.15   3.52106e+06    3.1471e+06   2.43204e+06   1.60907e+06   1.07044e+06
         2.16   3.51933e+06   3.13718e+06   2.42957e+06     1.608e+06   1.06971e+06
         2.17   3.51679e+06   3.13919e+06   2.42714e+06   1.60693e+06   1.06899e+06
         2.18   3.51486e+06   3.13167e+06   2.42477e+06   1.60587e+06   1.06827e+06
         2.19   3.51167e+06   3.13018e+06   2.42242e+06   1.60482e+06   1.06754e+06
          2.2   3.50837e+06   3.13151e+06    2.4201e+06   1.60377e+06   1.06682e+06
         2.21   3.50422e+06   3.12191e+06   2.41781e+06   1.60272e+06   1.06609e+06
         2.22   3.49916e+06   3.12399e+06   2.41553e+06   1.60169e+06   1.06537e+06
         2.23   3.49371e+06   3.11703e+06   2.41328e+06   1.60065e+06   1.06465e+06
         2.24   3.48721e+06   3.11445e+06   2.41106e+06   1.59962e+06   1.06394e+06
         2.25   3.48024e+06   3.11664e+06   2.40888e+06    1.5986e+06   1.06323e+06
         2.26   3.47217e+06   3.10766e+06   2.40672e+06   1.59759e+06   1.06254e+06
         2.27   3.46302e+06   3.10899e+06   2.40457e+06   1.59658e+06   1.06185e+06
         2.28   3.45344e+06   3.10334e+06   2.40244e+06   1.59557e+06   1.06118e+06
         2.29   3.44292e+06   3.09989e+06   2.40032e+06   1.59457e+06   1.06052e+06
          2.3   3.43217e+06   3.10226e+06    2.3982e+06   1.59358e+06   1.05988e+06
         2.31   3.42076e+06   3.09426e+06   2.39609e+06   1.59259e+06   1.05925e+06
         2.32   3.40888e+06    3.0953e+06   2.39399e+06   1.59161e+06   1.05863e+06
         2.33   3.39598e+06   3.09283e+06    2.3919e+06   1.59062e+06   1.05803e+06
         2.34   3.39349e+06   3.08662e+06   2.38984e+06   1.58963e+06   1.05743e+06
         2.35   3.39003e+06   3.08911e+06   2.38779e+06   1.58863e+06   1.05684e+06
         2.36   3.38266e+06   3.08178e+06   2.38575e+06   1.58761e+06   1.05625e+06
         2.37   3.38543e+06   3.08242e+06   2.38373e+06   1.58655e+06   1.05566e+06
         2.38   3.37417e+06   3.08237e+06   2.38173e+06   1.58546e+06   1.05508e+06
         2.39   3.37746e+06   3.07393e+06   2.37974e+06   1.58431e+06   1.05449e+06
          2.4   3.36682e+06     3.076e+06   2.37775e+06    1.5831e+06    1.0539e+06
         2.41   3.36977e+06   3.07013e+06   2.37576e+06   1.58184e+06    1.0533e+06
         2.42   3.36029e+06   3.06846e+06   2.37381e+06   1.58053e+06   1.05269e+06
         2.43   3.36232e+06   3.07017e+06   2.37188e+06   1.57918e+06   1.05207e+06
         2.44   3.35443e+06   3.06221e+06   2.36993e+06    1.5778e+06   1.05143e+06
         2.45   3.35565e+06   3.06412e+06   2.36795e+06   1.57641e+06   1.05076e+06
         2.46   3.34915e+06   3.06042e+06   2.36598e+06   1.57501e+06   1.05007e+06
         2.47   3.35018e+06   3.05642e+06   2.36407e+06   1.57362e+06   1.04934e+06
         2.48   3.34416e+06    3.0584e+06   2.36217e+06   1.57225e+06   1.04858e+06
         2.49   3.34588e+06    3.0511e+06   2.36025e+06   1.57088e+06   1.04777e+06
          2.5   3.33925e+06   3.05273e+06   2.35833e+06   1.56953e+06   1.04693e+06
         2.51   3.34218e+06    3.0516e+06    2.3565e+06   1.56819e+06   1.04606e+06
         2.52   3.33469e+06   3.04515e+06   2.35471e+06   1.56687e+06   1.04515e+06
         2.53   3.33958e+06   3.04675e+06   2.35285e+06   1.56555e+06   1.04423e+06
         2.54   3.33535e+06   3.04113e+06   2.35096e+06   1.56424e+06   1.04329e+06
         2.55   3.33762e+06   3.03997e+06   2.34912e+06   1.56295e+06   1.04233e+06
         2.56   3.33454e+06   3.04113e+06   2.34732e+06   1.56166e+06   1.04138e+06
         2.57   3.33117e+06   3.03439e+06   2.34543e+06   1.56038e+06   1.04042e+06
         2.58   3.33346e+06   3.03556e+06   2.34347e+06   1.55911e+06   1.03947e+06
         2.59   3.33027e+06    3.0354e+06   2.34166e+06   1.55785e+06   1.03851e+06
          2.6   3.32834e+06   3.02827e+06   2.34004e+06    1.5566e+06   1.03756e+06
         2.61    3.3285e+06   3.02991e+06   2.33836e+06   1.55535e+06   1.03662e+06
         2.62   3.32851e+06   3.02593e+06   2.33647e+06    1.5541e+06   1.03567e+06
         2.63    3.3263e+06   3.02292e+06   2.33455e+06   1.55286e+06   1.03474e+06
         2.64   3.32443e+06   3.02407e+06   2.33277e+06   1.55163e+06   1.03381e+06
         2.65   3.32711e+06   3.01893e+06   2.33099e+06    1.5504e+06   1.03289e+06
         2.66    3.3251e+06   3.01761e+06   2.32948e+06   1.54917e+06   1.03197e+06
         2.67   3.32315e+06   3.01852e+06   2.32741e+06   1.54796e+06   1.03107e+06
         2.68   3.32107e+06   3.01282e+06   2.32571e+06   1.54674e+06   1.03017e+06
         2.69   3.32375e+06   3.01347e+06   2.32413e+06   1.54554e+06   1.02928e+06
          2.7   3.32184e+06   3.01352e+06   2.32229e+06   1.54434e+06    1.0284e+06
         2.71    3.3196e+06   3.00657e+06   2.32048e+06   1.54314e+06   1.02752e+06
         2.72   3.31754e+06   3.00851e+06   2.31893e+06   1.54195e+06   1.02666e+06
         2.73    3.3201e+06   3.00813e+06    2.3174e+06   1.54076e+06    1.0258e+06
         2.74   3.31793e+06   3.00168e+06   2.31566e+06   1.53958e+06   1.02494e+06
         2.75   3.31559e+06   3.00378e+06   2.31381e+06    1.5384e+06    1.0241e+06
         2.76   3.31272e+06   2.99756e+06    2.3122e+06   1.53723e+06   1.02326e+06
         2.77   3.31594e+06   2.99902e+06   2.31031e+06   1.53605e+06   1.02243e+06
         2.78   3.31342e+06     2.999e+06   2.30888e+06   1.53489e+06   1.02161e+06
         2.79   3.31168e+06   2.99237e+06   2.30739e+06   1.53372e+06    1.0208e+06
          2.8   3.30719e+06     2.994e+06   2.30561e+06   1.53257e+06   1.01999e+06
         2.81   3.31155e+06   2.98902e+06   2.30402e+06   1.53142e+06   1.01919e+06
         2.82   3.30897e+06   2.98954e+06   2.30232e+06   1.53027e+06   1.01839e+06
         2.83   3.30564e+06   2.98945e+06   2.30071e+06   1.52914e+06    1.0176e+06
         2.84   3.30889e+06   2.98352e+06   2.29892e+06   1.52801e+06   1.01682e+06
         2.85   3.30664e+06   2.98484e+06   2.29734e+06   1.52689e+06   1.01604e+06
         2.86   3.30425e+06   2.98472e+06   2.29582e+06   1.52577e+06   1.01526e+06
         2.87   3.30649e+06   2.97843e+06   2.29413e+06   1.52466e+06    1.0145e+06
         2.88   3.30376e+06   2.97977e+06   2.29282e+06   1.52355e+06   1.01373e+06
         2.89   3.30172e+06    2.9753e+06   2.29108e+06   1.52244e+06   1.01298e+06
          2.9   3.29659e+06   2.97577e+06   2.28954e+06   1.52134e+06   1.01223e+06
         2.91   3.30144e+06   2.97565e+06   2.28792e+06   1.52025e+06   1.01149e+06
         2.92   3.29869e+06   2.96986e+06   2.28643e+06   1.51917e+06   1.01075e+06
         2.93   3.29495e+06   2.97133e+06   2.28484e+06   1.51809e+06   1.01002e+06
         2.94   3.29834e+06   2.97082e+06   2.28303e+06   1.51702e+06   1.00929e+06
         2.95   3.29593e+06   2.96518e+06   2.28121e+06   1.51596e+06   1.00857e+06
         2.96   3.29336e+06   2.96629e+06   2.27986e+06   1.51489e+06   1.00785e+06
         2.97   3.29531e+06    2.9654e+06   2.27868e+06   1.51384e+06   1.00713e+06
         2.98   3.29272e+06   2.96059e+06   2.27748e+06   1.51279e+06   1.00642e+06
         2.99   3.28996e+06   2.96161e+06   2.27605e+06   1.51174e+06   1.00571e+06
            3   3.29174e+06    2.9571e+06   2.27357e+06   1.51071e+06   1.00501e+06
         3.01   3.28894e+06    2.9566e+06   2.27183e+06   1.50968e+06   1.00432e+06
         3.02   3.28504e+06     2.957e+06   2.27085e+06   1.50866e+06   1.00363e+06
         3.03   3.28789e+06   2.95212e+06   2.26958e+06   1.50766e+06   1.00295e+06
         3.04   3.28426e+06   2.95229e+06    2.2677e+06   1.50665e+06   1.00228e+06
         3.05   3.27865e+06   2.95205e+06   2.26636e+06   1.50566e+06   1.00161e+06
         3.06   3.28287e+06   2.94739e+06   2.26652e+06   1.50467e+06   1.00094e+06
         3.07   3.27943e+06   2.94607e+06   2.26325e+06   1.50369e+06   1.00029e+06
         3.08   3.27683e+06   2.94687e+06   2.26186e+06   1.50271e+06        999646
         3.09   3.27705e+06   2.94646e+06   2.26017e+06   1.50175e+06        999010
          3.1   3.27065e+06   2.94048e+06   2.25897e+06   1.50079e+06        998384
         3.11   3.27423e+06   2.94174e+06    2.2582e+06   1.49984e+06        997767
         3.12    3.2703e+06   2.94133e+06   2.25649e+06    1.4989e+06        997158
         3.13   3.27139e+06   2.93545e+06    2.2545e+06   1.49796e+06        996556
         3.14   3.26672e+06   2.93698e+06   2.25325e+06   1.49702e+06        995961
         3.15    3.2676e+06    2.9366e+06   2.25148e+06   1.49609e+06        995372
         3.16   3.26227e+06     2.931e+06    2.2499e+06   1.49516e+06        994787
         3.17   3.26137e+06   2.93209e+06   2.24846e+06   1.49425e+06        994209
         3.18     3.257e+06   2.92769e+06   2.24748e+06   1.49334e+06        993635
         3.19   3.25749e+06   2.92725e+06   2.24625e+06   1.49245e+06        993066
          3.2   3.24998e+06   2.92753e+06   2.24541e+06   1.49156e+06        992499
         3.21   3.25125e+06   2.92226e+06   2.24291e+06   1.49068e+06        991933
         3.22   3.24216e+06   2.92311e+06   2.24157e+06   1.48979e+06        991368
         3.23   3.24483e+06   2.92278e+06   2.24006e+06   1.48891e+06        990803
         3.24   3.23473e+06   2.91727e+06   2.23892e+06   1.48803e+06        990240
         3.25   3.23827e+06   2.91856e+06   2.23973e+06   1.48716e+06        989680
         3.26   3.22715e+06   2.91819e+06   2.23576e+06    1.4863e+06        989124
         3.27   3.23071e+06   2.91257e+06   2.23432e+06   1.48545e+06        988573
         3.28   3.21919e+06   2.91348e+06   2.23335e+06   1.48462e+06        988026
         3.29   3.22296e+06   2.91184e+06   2.23239e+06   1.48379e+06        987480
          3.3   3.21085e+06   2.90763e+06   2.23112e+06   1.48297e+06        986937
         3.31   3.20845e+06   2.90839e+06   2.22996e+06   1.48215e+06        986395
         3.32   3.20238e+06   2.90738e+06   2.22753e+06   1.48133e+06        985856
         3.33   3.19879e+06   2.90225e+06   2.22619e+06   1.48053e+06        985322
         3.34   3.19636e+06   2.90333e+06   2.22501e+06   1.47972e+06        984796
         3.35    3.1884e+06   2.90272e+06   2.22416e+06   1.47893e+06        984277
         3.36   3.19028e+06   2.89684e+06    2.2223e+06   1.47813e+06        983767
         3.37   3.17767e+06   2.89787e+06   2.22096e+06   1.47735e+06        983262
         3.38   3.17402e+06   2.89723e+06   2.22004e+06   1.47657e+06        982762
         3.39   3.17376e+06    2.8915e+06   2.21951e+06    1.4758e+06        982266
          3.4   3.16219e+06   2.89241e+06   2.21705e+06   1.47504e+06        981775
         3.41   3.15828e+06   2.89178e+06    2.2153e+06   1.47428e+06        981288
         3.42   3.15857e+06   2.88616e+06   2.21431e+06   1.47353e+06        980806
         3.43   3.14583e+06    2.8868e+06   2.21319e+06   1.47278e+06        980328
         3.44   3.14152e+06   2.88615e+06   2.21206e+06   1.47203e+06        979853
         3.45   3.13709e+06   2.88076e+06   2.21098e+06   1.47128e+06        979383
         3.46   3.13312e+06   2.88125e+06   2.20897e+06   1.47054e+06        978918
         3.47    3.1238e+06   2.88065e+06   2.20785e+06   1.46982e+06        978457
         3.48   3.11927e+06   2.87525e+06    2.2092e+06    1.4691e+06        978001
         3.49   3.11463e+06    2.8755e+06   2.20447e+06   1.46839e+06        977549
          3.5   3.11324e+06   2.87484e+06    2.2039e+06   1.46769e+06        977099
         3.51   3.10132e+06   2.86965e+06    2.2034e+06   1.46698e+06        976652
         3.52   3.09654e+06   2.86889e+06   2.20166e+06   1.46628e+06        976207
         3.53   3.09206e+06   2.86883e+06   2.20015e+06   1.46558e+06        975766