# Probe 0 (1 0 0)
# Probe 1 (110 0 0)
# Probe 2 (200 0 0)
# Probe 3 (242.5 0 0)
# Probe 4 (255 0 0)
#       Probe             0             1             2             3             4
#        Time
            0        274.13        274.13        274.13        274.13        274.13
         0.01       274.224       274.224       274.224       274.224       261.133
         0.02       274.224       274.224       274.224       274.224       247.696
         0.03       274.224       274.224       274.224       274.224       242.654
         0.04       274.224       274.224       274.224       274.224       239.698
         0.05       274.224       274.224       274.224       274.224       237.822
         0.06       274.224       274.224       274.224       274.223       236.712
         0.07       274.224       274.224       274.224       274.215       236.087
         0.08       274.224       274.224       274.224       274.155       235.852
         0.09       274.224       274.224       274.224       273.894       235.864
          0.1       274.224       274.224       274.224       273.185       236.031
         0.11       274.224       274.224       274.224       270.385        236.27
         0.12       274.224       274.224       274.224       270.563       236.526
         0.13       274.224       274.224       274.224       269.901       236.775
         0.14       274.224       274.224       274.224       268.461       236.992
         0.15       274.224       274.224       274.224         266.6       237.173
         0.16       274.224       274.224       274.224       264.728       237.317
         0.17       274.224       274.224       274.224       263.035       237.422
         0.18       274.224       274.224       274.224       261.551       237.497
         0.19       274.224       274.224       274.224       260.258       237.546
          0.2       274.224       274.224       274.224       259.129       237.574
         0.21       274.224       274.224       274.224       258.139       237.586
         0.22       274.224       274.224       274.224       257.268       237.585
         0.23       274.224       274.224       274.224         256.5       237.576
         0.24       274.224       274.224       274.224       255.821        237.56
         0.25       274.224       274.224       274.224       255.219       237.539
         0.26       274.224       274.224       274.224       254.685       237.516
         0.27       274.224       274.224       274.224       254.211        237.49
         0.28       274.224       274.224       274.224        253.79       237.463
         0.29       274.224       274.224       274.224       253.416       237.435
          0.3       274.224       274.224       274.224       253.085       237.405
         0.31       274.224       274.224       274.224       252.792       237.376
         0.32       274.224       274.224       274.224       252.534       237.346
         0.33       274.224       274.224       274.223       252.309       237.317
         0.34       274.224       274.224       274.223       252.113       237.287
         0.35       274.224       274.224       274.221       251.944       237.257
         0.36       274.224       274.224       274.217       251.801       237.227
         0.37       274.224       274.224       274.209       251.682       237.198
         0.38       274.224       274.224       274.193       251.583       237.168
         0.39       274.224       274.224       274.165       251.502       237.139
          0.4       274.224       274.224       274.119       251.436        237.11
         0.41       274.224       274.224       274.053       251.382       237.081
         0.42       274.224       274.224       273.967       251.339       237.052
         0.43       274.224       274.224       273.874       251.303       237.023
         0.44       274.224       274.224       273.819       251.271       236.994
         0.45       274.224       274.224       273.703       251.242       236.966
         0.46       274.224       274.224       273.527       251.214       236.937
         0.47       274.224       274.224       273.214       251.186       236.909
         0.48       274.224       274.224       272.823       251.158       236.881
         0.49       274.224       274.224       272.463       251.127       236.853
          0.5       274.224       274.224       272.209       251.096       236.825
         0.51       274.224       274.224       271.928       251.062       236.799
         0.52       274.224       274.224        271.86       251.027       236.772
         0.53       274.224       274.224       271.807        250.99       236.744
         0.54       274.224       274.224       272.145       250.952       236.717
         0.55       274.224       274.224       271.677       250.913       236.689
         0.56       274.224       274.224       271.644       250.873       236.662
         0.57       274.224       274.224       271.389       250.833       236.634
         0.58       274.224       274.224       271.139       250.792       236.607
         0.59       274.224       274.224       270.764       250.751        236.58
          0.6       274.224       274.224       270.348        250.71       236.552
         0.61       274.224       274.224       269.898       250.668       236.525
         0.62       274.224       274.224        269.46       250.627       236.498
         0.63       274.224       274.224       269.049       250.587       236.471
         0.64       274.224       274.224       268.658       250.547       236.444
         0.65       274.224       274.224       268.284       250.507       236.417
         0.66       274.224       274.224       267.937       250.467        236.39
         0.67       274.224       274.224       267.619       250.428       236.363
         0.68       274.224       274.224       267.321       250.389       236.336
         0.69       274.224       274.224        267.04        250.35       236.309
          0.7       274.224       274.224       266.776       250.311       236.282
         0.71       274.224       274.224       266.529       250.272       236.255
         0.72       274.224       274.224       266.298       250.234       236.228
         0.73       274.224       274.224       266.079       250.196       236.202
         0.74       274.224       274.224       265.873       250.158       236.175
         0.75       274.224       274.224       265.679        250.12       236.148
         0.76       274.224       274.224       265.495       250.082       236.122
         0.77       274.224       274.224       265.323       250.044       236.095
         0.78       274.224       274.224        265.16       250.005       236.068
         0.79       274.224       274.224       265.008       249.967       236.042
          0.8       274.224       274.224       264.863       249.928       236.015
         0.81       274.224       274.224       264.728        249.89       235.989
         0.82       274.224       274.224         264.6       249.852       235.962
         0.83       274.224       274.224       264.479       249.814       235.936
         0.84       274.224       274.224       264.365       249.777       235.909
         0.85       274.224       274.224       264.256       249.741       235.882
         0.86       274.224       274.224       264.153       249.705       235.855
         0.87       274.224       274.224       264.056        249.67       235.827
         0.88       274.224       274.224       263.964       249.634       235.799
         0.89       274.224       274.224       263.877       249.598       235.771
          0.9       274.224       274.224       263.795       249.562       235.743
         0.91       274.224       274.224       263.718       249.525       235.715
         0.92       274.224       274.224       263.646       249.489       235.687
         0.93       274.224       274.224       263.578       249.454       235.659
         0.94       274.224       274.223       263.515       249.418       235.632
         0.95       274.224       274.223       263.456       249.383       235.605
         0.96       274.224       274.223         263.4       249.348       235.578
         0.97       274.224       274.223       263.348       249.314       235.551
         0.98       274.224       274.222       263.298       249.279       235.523
         0.99       274.224       274.221       263.252       249.245       235.495
            1       274.224       274.219       263.208       249.211       235.468
         1.01       274.224       274.217       263.167       249.177        235.44
         1.02       274.224       274.213       263.128       249.143       235.412
         1.03       274.224       274.209       263.092        249.11       235.385
         1.04       274.224       274.202       263.057       249.077       235.358
         1.05       274.224       274.193       263.024       249.044       235.331
         1.06       274.224       274.182       262.992        249.01       235.304
         1.07       274.224       274.167       262.962       248.977       235.277
         1.08       274.224       274.148       262.932       248.945       235.249
         1.09       274.224       274.125       262.903       248.912       235.223
          1.1       274.224       274.099       262.874       248.879       235.196
         1.11       274.224       274.068       262.846       248.846       235.169
         1.12       274.224       274.035       262.818       248.814       235.143
         1.13       274.224       273.999        262.79       248.782       235.116
         1.14       274.224       273.963       262.762        248.75        235.09
         1.15       274.224       273.927       262.734       248.718       235.064
         1.16       274.224       273.895       262.706       248.686       235.037
         1.17       274.224       273.868       262.678       248.655       235.011
         1.18       274.224       273.845        262.65       248.624       234.985
         1.19       274.224        273.85       262.622       248.592       234.958
          1.2       274.224       273.815       262.594       248.561       234.932
         1.21       274.224       273.797       262.566        248.53       234.906
         1.22       274.224       273.791       262.539       248.498        234.88
         1.23       274.224       273.733       262.511       248.467       234.855
         1.24       274.224        273.68       262.484       248.437       234.829
         1.25       274.224       273.629       262.457       248.406       234.803
         1.26       274.224       273.575        262.43       248.376       234.778
         1.27       274.224       273.489       262.402       248.346       234.752
         1.28       274.224       273.374       262.375       248.316       234.727
         1.29       274.224       273.264       262.348       248.286       234.701
          1.3       274.224       273.164        262.32       248.256       234.676
         1.31       274.224       273.038       262.293       248.227        234.65
         1.32       274.224       272.915       262.266       248.197       234.625
         1.33       274.224       272.812       262.239       248.168         234.6
         1.34       274.224       272.739       262.212       248.138       234.575
         1.35       274.224       272.642       262.185       248.109        234.55
         1.36       274.224       272.582       262.159        248.08       234.525
         1.37       274.224       272.556       262.132       248.051       234.501
         1.38       274.224         272.5       262.106       248.022       234.476
         1.39       274.224       272.493        262.08       247.993       234.452
          1.4       274.224       272.473       262.055       247.964       234.427
         1.41       274.224       272.434       262.029       247.936       234.403
         1.42       274.224       272.432       262.003       247.908       234.379
         1.43       274.224       272.436       261.977        247.88       234.354
         1.44       274.224       272.412       261.952       247.852        234.33
         1.45       274.224       272.395       261.926       247.824       234.306
         1.46       274.224       272.393         261.9       247.796       234.282
         1.47       274.224       272.152       261.875       247.768       234.258
         1.48       274.224       272.394        261.85        247.74       234.234
         1.49       274.224       272.091       261.825       247.713        234.21
          1.5       274.224       272.341         261.8       247.685       234.187
         1.51       274.224       271.974       261.775       247.658       234.163
         1.52       274.224       272.266        261.75        247.63        234.14
         1.53       274.224        272.29       261.725       247.603       234.116
         1.54       274.224       272.207       261.701       247.576       234.093
         1.55       274.224       271.948       261.676       247.549        234.07
         1.56       274.224       272.244       261.652       247.522       234.046
         1.57       274.224        272.19       261.628       247.495       234.023
         1.58       274.224       272.245       261.604       247.469           234
         1.59       274.224       272.189        261.58       247.442       233.977
          1.6       274.224        272.16       261.556       247.416       233.954
         1.61       274.224        272.08       261.532        247.39       233.931
         1.62       274.224       272.169       261.508       247.363       233.908
         1.63       274.224       271.873       261.484       247.337       233.885
         1.64       274.224       272.096       261.461       247.311       233.862
         1.65       274.224        271.74       261.437       247.285       233.839
         1.66       274.224       271.838       261.413        247.26       233.817
         1.67       274.224       272.024        261.39       247.234       233.794
         1.68       274.224       271.602       261.366       247.209       233.772
         1.69       274.224       271.533       261.343       247.183       233.749
          1.7       274.224       271.573        261.32       247.158       233.727
         1.71       274.223        271.38       261.297       247.133       233.704
         1.72       274.223       271.329       261.274       247.108       233.682
         1.73       274.223       271.262       261.251       247.082        233.66
         1.74       274.223       271.176       261.228       247.057       233.638
         1.75       274.223       271.109       261.205       247.033       233.616
         1.76       274.222       271.043       261.182       247.008       233.594
         1.77       274.221       270.983        261.16       246.983       233.572
         1.78       274.221       270.938       261.137       246.958        233.55
         1.79       274.219       270.884       261.115       246.933       233.528
          1.8       274.218       270.762       261.092       246.909       233.507
         1.81       274.216       270.726        261.07       246.884       233.485
         1.82       274.213       270.692       261.048        246.86       233.464
         1.83        274.21       270.761       261.026       246.836       233.442
         1.84       274.206       270.535       261.004       246.812       233.421
         1.85       274.201       270.505       260.982       246.788       233.399
         1.86       274.194       270.832        260.96       246.764       233.378
         1.87       274.186       270.377       260.938        246.74       233.357
         1.88       274.177       270.333       260.916       246.716       233.335
         1.89       274.165       270.455       260.895       246.692       233.314
          1.9       274.151       270.231       260.873       246.669       233.293
         1.91       274.135       270.182       260.852       246.645       233.272
         1.92       274.115       270.502        260.83       246.622       233.251
         1.93       274.093       270.077       260.809       246.598        233.23
         1.94       274.068       270.032       260.788       246.575       233.209
         1.95        274.04       270.327       260.767       246.551       233.189
         1.96       274.008       269.926       260.746       246.528       233.168
         1.97       273.973       270.233       260.725       246.505       233.147
         1.98       273.936       269.863       260.704       246.481       233.127
         1.99       273.895       269.799       260.683       246.458       233.106
            2       273.853       269.939       260.662       246.435       233.086
         2.01        273.84       269.704       260.641       246.413       233.065
         2.02       273.826       269.983        260.62        246.39       233.044
         2.03       273.813       269.614       260.599       246.367       233.024
         2.04        273.77       269.926       260.576       246.345       233.003
         2.05       273.759        269.53       260.553       246.322       232.983
         2.06        273.75       269.821       260.527         246.3       232.963
         2.07       273.743       269.453       260.498       246.278       232.942
         2.08       273.708       269.748       260.467       246.256       232.922
         2.09       273.705       269.377       260.433       246.234       232.902
          2.1       273.705       269.664       260.398       246.212       232.882
         2.11       273.675       269.301       260.361       246.191       232.862
         2.12       273.676       269.508       260.325       246.169       232.841
         2.13       273.646        269.23       260.289       246.147       232.821
         2.14       273.643       269.273       260.254       246.126       232.801
         2.15       273.636       269.491       260.219       246.104       232.781
         2.16       273.619       269.137       260.186       246.083       232.761
         2.17       273.571       269.401       260.153       246.062       232.741
         2.18       273.569       269.053       260.121        246.04       232.721
         2.19       273.525       269.226       260.089       246.019         232.7
          2.2       273.497       269.301       260.057       245.998        232.68
         2.21       273.452       268.972       260.025       245.977       232.659
         2.22       273.389       269.225       259.994       245.956       232.639
         2.23       273.336       268.887       259.963       245.935       232.619
         2.24       273.263       268.989       259.933       245.914       232.598
         2.25       273.198       269.137       259.903       245.893       232.578
         2.26        273.11       268.798       259.873       245.873       232.559
         2.27       273.002        269.04       259.844       245.852       232.539
         2.28       272.902       268.728       259.815       245.831        232.52
         2.29       272.783       268.782       259.785       245.811       232.501
          2.3       272.675       268.962       259.756        245.79       232.482
         2.31       272.555       268.641       259.727        245.77       232.464
         2.32       272.424       268.878       259.698        245.75       232.446
         2.33       271.976       268.737       259.669       245.729       232.429
         2.34       271.951       268.614        259.64       245.708       232.411
         2.35       272.112       268.819       259.612       245.687       232.394
         2.36       271.834       268.493       259.584       245.666       232.376
         2.37       272.173       268.738       259.556       245.643       232.359
         2.38        271.75       268.732       259.528        245.62       232.341
         2.39       272.087       268.434         259.5       245.595       232.324
          2.4       271.675       268.655       259.472       245.569       232.306
         2.41           272       268.354       259.444       245.542       232.288
         2.42       271.604       268.489       259.417       245.514       232.269
         2.43       271.911       268.599        259.39       245.485        232.25
         2.44       271.541       268.283       259.363       245.455        232.23
         2.45       271.832       268.527       259.335       245.425        232.21
         2.46       271.484       268.319       259.307       245.395       232.188
         2.47       271.773       268.314        259.28       245.365       232.165
         2.48       271.432       268.457       259.254       245.336       232.141
         2.49       271.735        268.15       259.226       245.306       232.116
          2.5       271.386       268.391       259.199       245.277        232.09
         2.51       271.689       268.327       259.174       245.248       232.063
         2.52       271.381       268.146       259.149        245.22       232.035
         2.53       271.661       268.308       259.122       245.191       232.006
         2.54       271.609       268.021       259.095       245.163       231.977
         2.55       271.644       268.164       259.069       245.134       231.947
         2.56       271.615       268.253       259.043       245.106       231.918
         2.57       271.563       267.955       259.016       245.078       231.888
         2.58       271.597       268.185       258.988        245.05       231.859
         2.59       271.549       268.182       258.963       245.023       231.829
          2.6       271.543       267.922        258.94       244.995         231.8
         2.61       271.455       268.114       258.916       244.967        231.77
         2.62       271.544       267.893       258.887        244.94       231.741
         2.63       271.516       267.918        258.86       244.912       231.711
         2.64       271.494        268.04       258.835       244.885       231.682
         2.65       271.532       267.766       258.809       244.857       231.653
         2.66       271.507       267.897       258.789        244.83       231.624
         2.67       271.484       267.972       258.756       244.803       231.595
         2.68       271.458       267.699       258.733       244.775       231.567
         2.69       271.495       267.927        258.71       244.748       231.538
          2.7       271.473       267.924       258.682       244.721        231.51
         2.71       271.444       267.649       258.655       244.694       231.481
         2.72       271.418       267.856       258.634       244.667       231.453
         2.73       271.453       267.853       258.611        244.64       231.425
         2.74       271.425       267.649       258.585       244.613       231.398
         2.75       271.393        267.81       258.557       244.586        231.37
         2.76       271.315       267.521       258.535       244.559       231.342
         2.77       271.398        267.75       258.505       244.532       231.315
         2.78       271.363       267.754       258.486       244.505       231.288
         2.79        271.36       267.507       258.463       244.478       231.261
          2.8       271.051       267.683       258.436       244.452       231.234
         2.81       271.356       267.411       258.413       244.425       231.207
         2.82       271.319       267.628       258.387       244.399        231.18
         2.83       271.223       267.629       258.365       244.372       231.153
         2.84       271.317       267.367       258.336       244.346       231.127
         2.85       271.304       267.581       258.314       244.319         231.1
         2.86       271.271       267.581       258.291       244.293       231.073
         2.87       271.301       267.344       258.265       244.267       231.047
         2.88       271.262        267.51       258.248        244.24       231.021
         2.89       271.252       267.248        258.22       244.214       230.994
          2.9       270.954       267.476       258.198       244.188       230.968
         2.91       271.245       267.465       258.172       244.162       230.942
         2.92       271.205       267.218       258.153       244.136       230.916
         2.93       271.083       267.422       258.126        244.11        230.89
         2.94       271.197         267.4       258.098       244.085       230.864
         2.95        271.18       267.202       258.072       244.059       230.838
         2.96       271.144       267.348       258.053       244.033       230.812
         2.97       271.168       267.306       258.036       244.007       230.786
         2.98       271.147       267.179       258.017       243.982        230.76
         2.99       271.107       267.297       257.994       243.956       230.734
            3       271.127       267.035       257.953       243.931       230.708
         3.01       271.102       267.196        257.93       243.906       230.683
         3.02       271.003       267.247       257.921       243.881       230.657
         3.03       271.096       266.984       257.897       243.855       230.632
         3.04       271.038       267.178       257.868       243.831       230.606
         3.05       270.786       267.188        257.85       243.806       230.581
         3.06       271.028       266.927       258.035       243.781       230.556
         3.07       270.989       267.023       257.814       243.756        230.53
         3.08        270.79       267.125        257.78       243.731       230.506
         3.09       270.961       267.119       257.754       243.707       230.481
          3.1       270.708       266.901       257.738       243.682       230.456
         3.11       270.925       267.062       257.729       243.658       230.431
         3.12       270.892       267.053       257.697       243.634       230.407
         3.13       270.906       266.834       257.667        243.61       230.383
         3.14       270.857       267.005       257.651       243.585       230.358
         3.15        270.87       266.997       257.658       243.561       230.334
         3.16       270.808       266.815         257.6       243.537        230.31
         3.17       270.734       266.933       257.577       243.513       230.286
         3.18       270.742       266.685       257.565       243.489       230.262
         3.19       270.752       266.847       257.544       243.465       230.238
          3.2       270.609       266.884       257.683       243.441       230.214
         3.21       270.672       266.629       257.507       243.418       230.189
         3.22       270.432       266.823       257.473       243.394       230.165
         3.23       270.596       266.819       257.449        243.37        230.14
         3.24       270.297       266.598       257.433       243.346       230.116
         3.25       270.538       266.776       257.572       243.322       230.091
         3.26       270.178       266.771        257.41       243.299       230.066
         3.27       270.449       266.578       257.364       243.276       230.041
         3.28       270.072       266.704       257.349       243.252       230.016
         3.29       270.363       266.625       257.334       243.229       229.991
          3.3       269.976       266.532       257.312       243.206       229.966
         3.31       269.907       266.643       257.394       243.183       229.941
         3.32       269.907       266.608       257.262        243.16       229.915
         3.33       269.796       266.449       257.236       243.137        229.89
         3.34       270.003       266.595       257.219       243.114       229.865
         3.35       269.678       266.584       257.207        243.09        229.84
         3.36       269.977       266.363       257.238       243.067       229.815
         3.37       269.571       266.525       257.164       243.044        229.79
         3.38       269.513       266.513       257.144       243.022       229.765
         3.39       269.794       266.282       257.139       242.999        229.74
          3.4       269.381       266.454       257.139       242.976       229.715
         3.41       269.333       266.444       257.071       242.954       229.689
         3.42       269.618       266.212       257.054       242.931       229.664
         3.43       269.199       266.382       257.036       242.908       229.639
         3.44       269.141       266.372       257.018       242.885       229.613
         3.45       269.091       266.136       257.101       242.863       229.587
         3.46       269.266       266.323       256.975        242.84       229.562
         3.47       268.938       266.315       256.953       242.817       229.536
         3.48       268.885        266.06       257.186       242.794       229.511
         3.49       268.833       266.249       256.909       242.771       229.485
          3.5       269.089       266.241       256.895       242.748       229.459
         3.51       268.683       265.988       256.886       242.725       229.433
         3.52       268.623       266.118       256.911       242.702       229.407
         3.53       268.573       266.163       256.836       242.679        229.38