# Probe 0 (1 0 0)
# Probe 1 (110 0 0)
# Probe 2 (200 0 0)
# Probe 3 (242.5 0 0)
# Probe 4 (255 0 0)
#       Probe             0             1             2             3             4
#        Time
            0        274.13        274.13        274.13        274.13        274.13
         0.01       272.558       272.558       272.558       272.558       271.624
         0.02       272.558       272.558       272.558       272.558       270.442
         0.03       272.558       272.558       272.558       272.558       269.896
         0.04       272.558       272.558       272.558       272.558       269.588
         0.05       272.558       272.558       272.558       272.558       269.343
         0.06       272.558       272.558       272.558       272.558       269.134
         0.07       272.558       272.558       272.558       272.557        268.97
         0.08       272.558       272.558       272.558       272.554       268.816
         0.09       272.558       272.558       272.558       272.541         268.7
          0.1       272.558       272.558       272.558       272.471       268.578
         0.11       272.558       272.558       272.558       272.212       268.472
         0.12       272.558       272.558       272.558       272.134       268.372
         0.13       272.558       272.558       272.558       272.013       268.263
         0.14       272.558       272.558       272.558       271.822       268.166
         0.15       272.558       272.558       272.558       271.585       268.061
         0.16       272.558       272.558       272.558       271.338       267.955
         0.17       272.558       272.558       272.558       271.103       267.852
         0.18       272.558       272.558       272.558       270.884       267.743
         0.19       272.558       272.558       272.558       270.682       267.638
          0.2       272.558       272.558       272.558       270.493        267.53
         0.21       272.558       272.558       272.558       270.316       267.422
         0.22       272.558       272.558       272.558       270.148       267.316
         0.23       272.558       272.558       272.558       269.989       267.208
         0.24       272.558       272.558       272.558       269.837       267.102
         0.25       272.558       272.558       272.558       269.691       266.997
         0.26       272.558       272.558       272.558        269.55       266.891
         0.27       272.558       272.558       272.558       269.414       266.787
         0.28       272.558       272.558       272.558       269.283       266.684
         0.29       272.558       272.558       272.558       269.156        266.58
          0.3       272.558       272.558       272.558       269.032       266.479
         0.31       272.558       272.558       272.558       268.911       266.378
         0.32       272.558       272.558       272.558       268.793       266.277
         0.33       272.558       272.558       272.558       268.679       266.178
         0.34       272.558       272.558       272.558       268.567       266.079
         0.35       272.558       272.558       272.558       268.457       265.981
         0.36       272.558       272.558       272.557       268.349       265.884
         0.37       272.558       272.558       272.557       268.242       265.787
         0.38       272.558       272.558       272.556       268.137       265.692
         0.39       272.558       272.558       272.555       268.034       265.597
          0.4       272.558       272.558       272.553       267.934       265.503
         0.41       272.558       272.558       272.549       267.838       265.409
         0.42       272.558       272.558       272.545       267.742       265.316
         0.43       272.558       272.558        272.54       267.647       265.224
         0.44       272.558       272.558       272.535       267.552       265.133
         0.45       272.558       272.558       272.524       267.458       265.042
         0.46       272.558       272.558       272.504       267.367       264.952
         0.47       272.558       272.558       272.472       267.275       264.863
         0.48       272.558       272.558        272.43       267.184       264.774
         0.49       272.558       272.558       272.392       267.093       264.686
          0.5       272.558       272.558       272.342       267.003       264.599
         0.51       272.558       272.558       272.295       266.913       264.512
         0.52       272.558       272.558       272.224       266.824       264.426
         0.53       272.558       272.558       272.155       266.736        264.34
         0.54       272.558       272.558       272.118       266.647       264.256
         0.55       272.558       272.558       272.048        266.56       264.171
         0.56       272.558       272.558       271.979       266.472       264.087
         0.57       272.558       272.558       271.894       266.386       264.004
         0.58       272.558       272.558       271.806         266.3       263.922
         0.59       272.558       272.558       271.707       266.214       263.839
          0.6       272.558       272.558       271.602       266.129       263.758
         0.61       272.558       272.558       271.494       266.044       263.677
         0.62       272.558       272.558       271.385        265.96       263.596
         0.63       272.558       272.558       271.278       265.877       263.517
         0.64       272.558       272.558       271.173       265.794       263.437
         0.65       272.558       272.558       271.068       265.712       263.358
         0.66       272.558       272.558       270.966        265.63        263.28
         0.67       272.558       272.558       270.866       265.548       263.202
         0.68       272.558       272.558       270.767       265.467       263.124
         0.69       272.558       272.558        270.67       265.387       263.047
          0.7       272.558       272.558       270.573       265.307       262.971
         0.71       272.558       272.558       270.478       265.228       262.895
         0.72       272.558       272.558       270.384       265.149       262.819
         0.73       272.558       272.558       270.291       265.071       262.744
         0.74       272.558       272.558       270.198       264.993       262.669
         0.75       272.558       272.558       270.106       264.915       262.595
         0.76       272.558       272.558       270.014       264.838       262.521
         0.77       272.558       272.558       269.923       264.762       262.448
         0.78       272.558       272.558       269.833       264.686       262.375
         0.79       272.558       272.558       269.743        264.61       262.302
          0.8       272.558       272.558       269.654       264.535        262.23
         0.81       272.558       272.558       269.567        264.46       262.158
         0.82       272.558       272.558        269.48       264.385       262.087
         0.83       272.558       272.558       269.394       264.311       262.016
         0.84       272.558       272.558        269.31       264.237       261.945
         0.85       272.558       272.558       269.227       264.164       261.875
         0.86       272.558       272.558       269.145       264.091       261.805
         0.87       272.558       272.558       269.065       264.019       261.736
         0.88       272.558       272.558       268.986       263.947       261.666
         0.89       272.558       272.558       268.908       263.875       261.598
          0.9       272.558       272.558       268.832       263.804       261.529
         0.91       272.558       272.558       268.756       263.733       261.461
         0.92       272.558       272.558       268.682       263.663       261.393
         0.93       272.558       272.558       268.608       263.592       261.326
         0.94       272.558       272.558       268.534       263.523       261.259
         0.95       272.558       272.558        268.46       263.453       261.192
         0.96       272.558       272.558       268.386       263.384       261.125
         0.97       272.558       272.558       268.312       263.315       261.059
         0.98       272.558       272.558       268.237       263.247       260.993
         0.99       272.558       272.558       268.162       263.179       260.928
            1       272.558       272.558       268.087       263.111       260.862
         1.01       272.558       272.557       268.011       263.044       260.797
         1.02       272.558       272.557       267.935       262.977       260.733
         1.03       272.558       272.557        267.86        262.91       260.668
         1.04       272.558       272.557       267.785       262.844       260.604
         1.05       272.558       272.556        267.71       262.778        260.54
         1.06       272.558       272.556       267.637       262.712       260.477
         1.07       272.558       272.555       267.565       262.647       260.413
         1.08       272.558       272.554       267.494       262.582        260.35
         1.09       272.558       272.553       267.424       262.517       260.287
          1.1       272.558       272.552       267.356       262.452       260.225
         1.11       272.558        272.55       267.289       262.388       260.163
         1.12       272.558       272.548       267.223       262.324         260.1
         1.13       272.558       272.547       267.158        262.26       260.039
         1.14       272.558       272.545       267.093       262.197       259.977
         1.15       272.558       272.543       267.028       262.134       259.916
         1.16       272.558       272.541       266.964       262.071       259.855
         1.17       272.558        272.54       266.899       262.008       259.794
         1.18       272.558       272.539       266.833       261.946       259.733
         1.19       272.558       272.538       266.768       261.884       259.673
          1.2       272.558       272.536       266.701       261.822       259.613
         1.21       272.558       272.534       266.634       261.761       259.553
         1.22       272.558       272.531       266.567       261.699       259.493
         1.23       272.558       272.527         266.5       261.638       259.433
         1.24       272.558       272.522       266.433       261.578       259.374
         1.25       272.558       272.516       266.367       261.517       259.315
         1.26       272.558       272.508       266.301       261.457       259.256
         1.27       272.558       272.499       266.235       261.397       259.197
         1.28       272.558       272.488       266.171       261.337       259.139
         1.29       272.558       272.477       266.108       261.277       259.081
          1.3       272.558       272.465       266.046       261.218       259.022
         1.31       272.558       272.452       265.984       261.159       258.965
         1.32       272.558        272.44       265.923         261.1       258.907
         1.33       272.558       272.429       265.863       261.041       258.849
         1.34       272.558        272.42       265.803       260.983       258.792
         1.35       272.558       272.412       265.744       260.925       258.735
         1.36       272.558       272.405       265.684       260.866       258.677
         1.37       272.558         272.4       265.623       260.809       258.621
         1.38       272.558       272.396       265.563       260.751       258.564
         1.39       272.558       272.394       265.502       260.694       258.507
          1.4       272.558       272.392        265.44       260.636       258.451
         1.41       272.558        272.39       265.379       260.579       258.395
         1.42       272.558       272.388       265.317       260.522       258.339
         1.43       272.558       272.387       265.255       260.466       258.283
         1.44       272.558       272.386       265.193       260.409       258.227
         1.45       272.558       272.385       265.132       260.353       258.172
         1.46       272.558       272.385       265.072       260.297       258.116
         1.47       272.558       272.369       265.012       260.241       258.061
         1.48       272.558       272.352       264.953       260.185       258.006
         1.49       272.558       272.329       264.895        260.13        257.95
          1.5       272.558       272.304       264.838       260.074       257.896
         1.51       272.558       272.258       264.781       260.019       257.841
         1.52       272.558       272.246       264.724       259.964       257.786
         1.53       272.558       272.205       264.668       259.909       257.732
         1.54       272.558       272.198       264.611       259.854       257.677
         1.55       272.558       272.178       264.555       259.799       257.623
         1.56       272.558       272.173       264.498       259.745       257.569
         1.57       272.558       272.168       264.441       259.691       257.515
         1.58       272.558       272.145       264.384       259.637       257.461
         1.59       272.558       272.141       264.327       259.583       257.407
          1.6       272.558       272.139        264.27       259.529       257.353
         1.61       272.558       272.136       264.213       259.475         257.3
         1.62       272.558       272.101       264.157       259.421       257.246
         1.63       272.558       272.082       264.101       259.368       257.193
         1.64       272.558       272.055       264.046       259.315        257.14
         1.65       272.558       272.011       263.991       259.262       257.086
         1.66       272.558       271.994       263.937       259.208       257.033
         1.67       272.558       271.937       263.884       259.156        256.98
         1.68       272.558         271.9       263.831       259.103       256.927
         1.69       272.558       271.832       263.778        259.05       256.875
          1.7       272.558       271.795       263.726       258.998       256.822
         1.71       272.558       271.725       263.673       258.945       256.769
         1.72       272.558       271.656        263.62       258.893       256.717
         1.73       272.558       271.587       263.567       258.841       256.664
         1.74       272.558       271.515       263.513       258.789       256.612
         1.75       272.558       271.444       263.459       258.737       256.559
         1.76       272.558       271.374       263.404       258.686       256.507
         1.77       272.558       271.305       263.349       258.635       256.455
         1.78       272.558       271.237       263.295       258.583       256.403
         1.79       272.558       271.196        263.24       258.532       256.351
          1.8       272.557       271.127       263.186       258.482       256.299
         1.81       272.557       271.059       263.132       258.431       256.247
         1.82       272.557       270.992       263.079       258.381       256.195
         1.83       272.557       270.961       263.027       258.331       256.143
         1.84       272.557       270.891       262.975       258.281       256.091
         1.85       272.557       270.824       262.924       258.231        256.04
         1.86       272.556       270.772       262.874       258.181       255.988
         1.87       272.556       270.723       262.824       258.132       255.936
         1.88       272.555       270.657       262.773       258.083       255.885
         1.89       272.555       270.594       262.723       258.033       255.833
          1.9       272.554       270.557       262.672       257.984       255.782
         1.91       272.553       270.492       262.621       257.934        255.73
         1.92       272.552       270.437       262.569       257.884       255.679
         1.93       272.551       270.394       262.517       257.835       255.628
         1.94        272.55       270.329       262.465       257.785       255.576
         1.95       272.549       270.296       262.412       257.735       255.525
         1.96       272.547       270.236       262.359       257.685       255.474
         1.97       272.545       270.179       262.307       257.635       255.423
         1.98       272.543       270.148       262.255       257.585       255.372
         1.99       272.541       270.084       262.204       257.536       255.321
            2       272.539       270.063       262.153       257.486        255.27
         2.01       272.537       269.998       262.104       257.437       255.219
         2.02       272.535        269.97       262.055       257.388       255.168
         2.03       272.533       269.914       262.007        257.34       255.118
         2.04       272.531       269.878        261.96       257.292       255.067
         2.05        272.53       269.829       261.913       257.244       255.017
         2.06       272.528       269.792       261.866       257.196       254.967
         2.07       272.526       269.745       261.819       257.148       254.917
         2.08       272.525       269.711       261.772       257.101       254.867
         2.09       272.523       269.661       261.724       257.053       254.817
          2.1       272.522       269.633       261.676       257.005       254.767
         2.11        272.52       269.577       261.627       256.957       254.718
         2.12       272.519       269.557       261.577       256.909       254.668
         2.13       272.518       269.494       261.527        256.86       254.618
         2.14       272.516       269.475       261.477       256.811       254.568
         2.15       272.515       269.424       261.427       256.762       254.518
         2.16       272.513       269.395       261.377       256.713       254.467
         2.17        272.51        269.36       261.327       256.664       254.416
         2.18       272.508       269.315       261.277       256.614       254.366
         2.19       272.504       269.297       261.228       256.565       254.315
          2.2         272.5       269.244       261.179       256.516       254.264
         2.21       272.496       269.218        261.13       256.467       254.213
         2.22        272.49       269.186       261.081       256.417       254.162
         2.23       272.484        269.14       261.033       256.368       254.111
         2.24       272.477       269.124       260.984       256.319       254.061
         2.25       272.469       269.078       260.936        256.27        254.01
         2.26       272.459       269.047       260.887       256.221        253.96
         2.27       272.449       269.024       260.838       256.173        253.91
         2.28       272.438       268.973       260.788       256.124       253.861
         2.29       272.427       268.959       260.739       256.075       253.811
          2.3       272.414        268.92       260.689       256.027       253.762
         2.31       272.401       268.887        260.64       255.979       253.713
         2.32       272.388       268.868        260.59       255.931       253.663
         2.33       272.325       268.819       260.541       255.883       253.614
         2.34       272.255       268.804       260.491       255.835       253.564
         2.35        272.23       268.771       260.443       255.788       253.513
         2.36       272.158       268.734       260.394       255.741       253.462
         2.37       272.122       268.722       260.346       255.694       253.411
         2.38       272.067       268.676       260.299       255.646        253.36
         2.39       272.033       268.655       260.252       255.598       253.308
          2.4       271.982        268.63       260.205        255.55       253.256
         2.41       271.953       268.587       260.158         255.5       253.204
         2.42       271.902       268.579       260.111       255.451       253.151
         2.43       271.881       268.539       260.064       255.401       253.099
         2.44       271.827       268.513       260.017       255.351       253.047
         2.45       271.814       268.494       259.969         255.3       252.994
         2.46       271.759       268.449       259.921        255.25       252.942
         2.47       271.753       268.442       259.874         255.2        252.89
         2.48       271.702       268.407       259.826       255.149       252.837
         2.49       271.698       268.378       259.778       255.099       252.784
          2.5       271.655       268.363        259.73       255.049       252.732
         2.51       271.649       268.321       259.682       254.999       252.679
         2.52       271.624       268.309       259.635        254.95       252.627
         2.53       271.603       268.282       259.587         254.9       252.574
         2.54       271.599       268.244        259.54        254.85       252.522
         2.55       271.562       268.239       259.494       254.801       252.469
         2.56       271.558       268.203       259.447       254.751       252.417
         2.57       271.555       268.176       259.401       254.701       252.365
         2.58       271.522       268.164       259.354       254.651       252.313
         2.59       271.519       268.125       259.308       254.601       252.261
          2.6       271.517       268.109       259.262        254.55       252.208
         2.61       271.484       268.086       259.216         254.5       252.156
         2.62       271.482       268.048       259.171       254.449       252.103
         2.63        271.48       268.042       259.126       254.399       252.049
         2.64       271.478       268.013       259.082       254.348       251.995
         2.65       271.447       267.979       259.039       254.297        251.94
         2.66       271.444       267.974       258.998       254.246       251.884
         2.67       271.442       267.943        258.96       254.195       251.828
         2.68        271.44       267.912       258.924       254.144       251.772
         2.69       271.409       267.908       258.891       254.092       251.716
          2.7       271.407       267.871       258.861       254.039       251.659
         2.71       271.405       267.852       258.834       253.987       251.603
         2.72       271.403       267.835       258.808       253.934       251.546
         2.73       271.372       267.799       258.783       253.882        251.49
         2.74        271.37       267.791       258.759       253.829       251.433
         2.75       271.367       267.763       258.735       253.776       251.377
         2.76       271.363       267.736        258.71       253.724       251.321
         2.77       271.333       267.727       258.686       253.671       251.264
         2.78       271.331       267.691       258.662       253.619       251.208
         2.79       271.328       267.679       258.639       253.566       251.151
          2.8       271.297       267.657       258.615       253.514       251.094
         2.81       271.294       267.625        258.59       253.462       251.037
         2.82       271.291       267.623       258.565       253.409       250.979
         2.83       271.286       267.588        258.54       253.356       250.922
         2.84       271.256       267.567       258.516       253.302       250.863
         2.85       271.253       267.556       258.491       253.248       250.805
         2.86       271.251       267.521       258.467       253.193       250.747
         2.87       271.219        267.51       258.444       253.138       250.688
         2.88       271.216        267.49        258.42       253.083       250.629
         2.89       271.214       267.455       258.397       253.028        250.57
          2.9       271.189       267.457       258.375       252.972       250.511
         2.91       271.179       267.421       258.352       252.917       250.451
         2.92       271.176       267.404       258.329       252.862        250.39
         2.93        271.17       267.391       258.307       252.807       250.329
         2.94       271.141       267.358       258.284       252.752       250.268
         2.95       271.138       267.349       258.263       252.698       250.206
         2.96       271.135       267.328       258.242       252.643       250.144
         2.97       271.102       267.296       258.221       252.589       250.082
         2.98       271.099       267.292         258.2       252.533        250.02
         2.99       271.097       267.266       258.178       252.478       249.957
            3       271.063       267.235       258.152       252.421       249.895
         3.01        271.06       267.236       258.128       252.364       249.833
         3.02       271.055       267.205       258.104       252.306       249.771
         3.03       271.022       267.178       258.081       252.247       249.708
         3.04       271.018       267.177       258.058       252.189       249.646
         3.05       270.999       267.147       258.036        252.13       249.583
         3.06       270.976       267.118       258.031       252.071       249.519
         3.07       270.972       267.114       258.012       252.012       249.454
         3.08       270.932        267.09       257.989       251.954       249.389
         3.09       270.929        267.06       257.966       251.895       249.323
          3.1       270.911        267.05       257.941       251.836       249.257
         3.11       270.883       267.033       257.916       251.777        249.19
         3.12       270.878       267.002       257.891       251.718       249.123
         3.13       270.834       266.991       257.866       251.658       249.056
         3.14       270.829       266.973       257.841       251.598       248.988
         3.15       270.783       266.941       257.839       251.537       248.921
         3.16       270.777       266.935       257.814       251.476       248.853
         3.17       270.728       266.911       257.787       251.414       248.786
         3.18       270.723       266.878       257.761       251.352       248.719
         3.19       270.671        266.88       257.735       251.289       248.651
          3.2       270.663       266.847       257.729       251.226       248.583
         3.21       270.608       266.823       257.705       251.164       248.515
         3.22       270.592       266.816       257.681       251.101       248.445
         3.23       270.538       266.782       257.657       251.038       248.375
         3.24       270.515       266.768       257.635       250.975       248.303
         3.25       270.461       266.752       257.616       250.911        248.23
         3.26       270.432       266.718       257.613       250.848       248.157
         3.27       270.378        266.71       257.589       250.784       248.083
         3.28       270.345       266.688       257.564        250.72       248.009
         3.29       270.286       266.655       257.538       250.655       247.935
          3.3       270.252       266.649       257.511       250.589        247.86
         3.31       270.182       266.625        257.51       250.523       247.785
         3.32       270.155       266.592       257.485       250.456        247.71
         3.33       270.085       266.584       257.458       250.389       247.635
         3.34       270.056       266.563       257.431       250.322       247.559
         3.35       269.984        266.53       257.405       250.254       247.483
         3.36       269.926       266.518       257.404       250.186       247.406
         3.37       269.879         266.5       257.383       250.119       247.328
         3.38       269.807       266.467        257.36       250.051       247.249
         3.39       269.762       266.452       257.336       249.983       247.169
          3.4       269.699       266.436       257.333       249.915       247.089
         3.41       269.627       266.402       257.308       249.847       247.007
         3.42       269.572       266.385       257.282        249.78       246.926
         3.43       269.516       266.371       257.255       249.711       246.843
         3.44       269.444       266.337       257.228       249.642        246.76
         3.45       269.371       266.315       257.227       249.572       246.677
         3.46       269.334       266.305       257.202         249.5       246.594
         3.47        269.26        266.27       257.175       249.427        246.51
         3.48       269.187       266.244       257.164       249.353       246.426
         3.49       269.114       266.237       257.148       249.277       246.341
          3.5       269.067       266.202       257.122       249.201       246.255
         3.51       269.004       266.172       257.094       249.124       246.168
         3.52       268.931       266.165       257.094       249.047       246.081
         3.53       268.858       266.131       257.066       248.969       245.992