# Probe 0 (1 0 0)
# Probe 1 (110 0 0)
# Probe 2 (200 0 0)
# Probe 3 (242.5 0 0)
# Probe 4 (255 0 0)
#       Probe             0             1             2             3             4
#        Time
            0             (0 0 0)             (0 0 0)             (0 0 0)             (0 0 0)             (0 0 0)
         0.01             (-9.64207e-11 0 0)             (-9.28219e-11 0 0)             (2.21618e-10 0 0)             (1.53868e-10 0 0)             (19.976 0 0)
         0.02             (2.07993e-10 0 0)             (1.18896e-10 0 0)             (2.08631e-10 0 0)             (7.80916e-10 0 0)             (39.9231 0 0)
         0.03             (2.72239e-10 0 0)             (-1.92013e-10 0 0)             (8.89554e-11 0 0)             (-8.8079e-10 0 0)             (48.3628 0 0)
         0.04             (4.47171e-11 0 0)             (2.59642e-10 0 0)             (5.87604e-12 0 0)             (4.21833e-09 0 0)             (53.085 0 0)
         0.05             (-1.19794e-10 0 0)             (1.34647e-10 0 0)             (-4.60539e-10 0 0)             (4.91745e-06 0 0)             (56.2663 0 0)
         0.06             (-1.14338e-10 0 0)             (1.90744e-10 0 0)             (-3.41338e-11 0 0)             (0.000635322 0 0)             (58.1946 0 0)
         0.07             (1.79445e-10 0 0)             (2.92883e-11 0 0)             (-8.28638e-11 0 0)             (0.0123993 0 0)             (59.26 0 0)
         0.08             (8.56465e-11 0 0)             (-3.48132e-11 0 0)             (-7.37082e-10 0 0)             (0.0870314 0 0)             (59.7234 0 0)
         0.09             (-1.28416e-10 0 0)             (3.69666e-10 0 0)             (-9.66853e-11 0 0)             (0.352909 0 0)             (59.7724 0 0)
          0.1             (1.14393e-10 0 0)             (-5.16954e-11 0 0)             (9.64887e-10 0 0)             (1.81015 0 0)             (59.5481 0 0)
         0.11             (2.73839e-10 0 0)             (-2.8865e-10 0 0)             (4.2324e-10 0 0)             (6.99958 0 0)             (59.1893 0 0)
         0.12             (4.30269e-11 0 0)             (1.57093e-10 0 0)             (-2.10596e-10 0 0)             (7.18885 0 0)             (58.7966 0 0)
         0.13             (-1.52435e-10 0 0)             (5.30135e-11 0 0)             (-3.22585e-10 0 0)             (8.02354 0 0)             (58.4325 0 0)
         0.14             (-1.44532e-10 0 0)             (1.33393e-10 0 0)             (-5.78007e-11 0 0)             (9.86202 0 0)             (58.1197 0 0)
         0.15             (1.05311e-10 0 0)             (-9.02086e-11 0 0)             (5.28581e-10 0 0)             (12.4644 0 0)             (57.8714 0 0)
         0.16             (1.39961e-10 0 0)             (1.56391e-10 0 0)             (-9.19086e-11 0 0)             (15.2654 0 0)             (57.6883 0 0)
         0.17             (-2.29623e-10 0 0)             (2.91195e-10 0 0)             (-3.67336e-10 0 0)             (17.935 0 0)             (57.5635 0 0)
         0.18             (-1.18984e-10 0 0)             (3.42943e-10 0 0)             (2.01815e-10 0 0)             (20.3448 0 0)             (57.4898 0 0)
         0.19             (2.48341e-10 0 0)             (3.52876e-10 0 0)             (9.96162e-10 0 0)             (22.484 0 0)             (57.4591 0 0)
          0.2             (2.97704e-11 0 0)             (1.32546e-10 0 0)             (1.05438e-09 0 0)             (24.375 0 0)             (57.4623 0 0)
         0.21             (-1.2459e-10 0 0)             (4.33951e-10 0 0)             (1.01285e-09 0 0)             (26.0476 0 0)             (57.492 0 0)
         0.22             (-1.43934e-10 0 0)             (3.91311e-10 0 0)             (1.20206e-09 0 0)             (27.5296 0 0)             (57.5416 0 0)
         0.23             (1.27338e-10 0 0)             (6.25734e-11 0 0)             (1.48835e-09 0 0)             (28.8452 0 0)             (57.6061 0 0)
         0.24             (-6.75708e-11 0 0)             (-2.10697e-10 0 0)             (2.34492e-09 0 0)             (30.0153 0 0)             (57.6809 0 0)
         0.25             (-1.05655e-10 0 0)             (-3.39765e-10 0 0)             (1.86287e-09 0 0)             (31.0583 0 0)             (57.7632 0 0)
         0.26             (-1.44717e-10 0 0)             (-5.09846e-10 0 0)             (2.47014e-09 0 0)             (31.9896 0 0)             (57.8503 0 0)
         0.27             (1.69644e-10 0 0)             (-6.63925e-11 0 0)             (1.9815e-08 0 0)             (32.8224 0 0)             (57.9407 0 0)
         0.28             (2.66257e-10 0 0)             (1.14285e-10 0 0)             (1.91649e-07 0 0)             (33.5678 0 0)             (58.033 0 0)
         0.29             (-3.87084e-11 0 0)             (2.63301e-10 0 0)             (1.31052e-06 0 0)             (34.2349 0 0)             (58.1265 0 0)
          0.3             (-2.04837e-10 0 0)             (-9.28162e-11 0 0)             (7.29875e-06 0 0)             (34.8309 0 0)             (58.2205 0 0)
         0.31             (-1.35634e-10 0 0)             (1.12077e-11 0 0)             (3.3723e-05 0 0)             (35.3619 0 0)             (58.3146 0 0)
         0.32             (2.70273e-10 0 0)             (1.80059e-10 0 0)             (0.00013153 0 0)             (35.8323 0 0)             (58.4084 0 0)
         0.33             (1.11766e-10 0 0)             (-1.40655e-10 0 0)             (0.000440253 0 0)             (36.2464 0 0)             (58.5015 0 0)
         0.34             (-2.72567e-10 0 0)             (-8.59578e-11 0 0)             (0.00128582 0 0)             (36.6078 0 0)             (58.5939 0 0)
         0.35             (-2.74457e-10 0 0)             (2.9714e-10 0 0)             (0.00333193 0 0)             (36.9203 0 0)             (58.6855 0 0)
         0.36             (-6.71566e-11 0 0)             (-3.12932e-10 0 0)             (0.0077843 0 0)             (37.1874 0 0)             (58.7762 0 0)
         0.37             (1.3816e-10 0 0)             (-3.02361e-10 0 0)             (0.0166307 0 0)             (37.4133 0 0)             (58.8659 0 0)
         0.38             (-6.96259e-11 0 0)             (-1.08399e-10 0 0)             (0.032845 0 0)             (37.6025 0 0)             (58.9548 0 0)
         0.39             (-1.65633e-10 0 0)             (-3.93325e-10 0 0)             (0.0603311 0 0)             (37.7598 0 0)             (59.0426 0 0)
          0.4             (1.00267e-10 0 0)             (8.09245e-11 0 0)             (0.103124 0 0)             (37.8902 0 0)             (59.1295 0 0)
         0.41             (2.1298e-10 0 0)             (5.43163e-10 0 0)             (0.163223 0 0)             (37.999 0 0)             (59.2153 0 0)
         0.42             (-1.73043e-10 0 0)             (2.40304e-10 0 0)             (0.237111 0 0)             (38.091 0 0)             (59.3 0 0)
         0.43             (-1.81569e-10 0 0)             (1.39253e-11 0 0)             (0.311784 0 0)             (38.1709 0 0)             (59.3837 0 0)
         0.44             (1.83306e-10 0 0)             (1.3681e-10 0 0)             (0.402683 0 0)             (38.2426 0 0)             (59.4665 0 0)
         0.45             (3.00678e-10 0 0)             (-1.01505e-10 0 0)             (0.601171 0 0)             (38.3092 0 0)             (59.5484 0 0)
         0.46             (1.7107e-11 0 0)             (-2.11205e-10 0 0)             (0.962217 0 0)             (38.3737 0 0)             (59.6295 0 0)
         0.47             (-9.89564e-11 0 0)             (-3.25353e-12 0 0)             (1.53449 0 0)             (38.4382 0 0)             (59.7096 0 0)
         0.48             (1.83195e-10 0 0)             (-1.85828e-10 0 0)             (2.25883 0 0)             (38.5041 0 0)             (59.7889 0 0)
         0.49             (8.96846e-11 0 0)             (-1.78629e-10 0 0)             (2.88987 0 0)             (38.5722 0 0)             (59.8668 0 0)
          0.5             (-8.58678e-11 0 0)             (1.47465e-11 0 0)             (2.92425 0 0)             (38.643 0 0)             (59.9429 0 0)
         0.51             (-1.25868e-10 0 0)             (-4.06212e-10 0 0)             (3.38179 0 0)             (38.7165 0 0)             (60.0178 0 0)
         0.52             (1.84713e-10 0 0)             (4.14118e-11 0 0)             (3.49162 0 0)             (38.7925 0 0)             (60.0923 0 0)
         0.53             (2.78916e-10 0 0)             (6.1615e-10 0 0)             (3.99508 0 0)             (38.8706 0 0)             (60.1665 0 0)
         0.54             (9.00367e-11 0 0)             (8.01401e-10 0 0)             (4.29611 0 0)             (38.9504 0 0)             (60.2402 0 0)
         0.55             (-7.21553e-11 0 0)             (8.45299e-10 0 0)             (4.30239 0 0)             (39.0314 0 0)             (60.3134 0 0)
         0.56             (-1.76674e-10 0 0)             (7.67752e-10 0 0)             (4.797 0 0)             (39.1133 0 0)             (60.386 0 0)
         0.57             (-1.67334e-11 0 0)             (1.04641e-09 0 0)             (5.02089 0 0)             (39.1956 0 0)             (60.4579 0 0)
         0.58             (1.96815e-10 0 0)             (1.01489e-09 0 0)             (5.60819 0 0)             (39.2781 0 0)             (60.529 0 0)
         0.59             (1.554e-10 0 0)             (5.78047e-10 0 0)             (6.16467 0 0)             (39.3605 0 0)             (60.5994 0 0)
          0.6             (-1.1662e-10 0 0)             (7.7899e-10 0 0)             (6.82115 0 0)             (39.4426 0 0)             (60.6691 0 0)
         0.61             (-2.20363e-10 0 0)             (1.04168e-09 0 0)             (7.49232 0 0)             (39.5239 0 0)             (60.7381 0 0)
         0.62             (-2.22713e-10 0 0)             (1.43062e-09 0 0)             (8.18747 0 0)             (39.6046 0 0)             (60.8063 0 0)
         0.63             (7.64256e-11 0 0)             (1.27318e-09 0 0)             (8.88172 0 0)             (39.6843 0 0)             (60.8738 0 0)
         0.64             (1.83766e-10 0 0)             (1.5171e-09 0 0)             (9.54352 0 0)             (39.7629 0 0)             (60.9406 0 0)
         0.65             (-3.25768e-12 0 0)             (1.8206e-09 0 0)             (10.1663 0 0)             (39.8407 0 0)             (61.0067 0 0)
         0.66             (-1.84691e-11 0 0)             (2.21655e-09 0 0)             (10.7648 0 0)             (39.9176 0 0)             (61.0721 0 0)
         0.67             (1.92066e-10 0 0)             (1.80121e-09 0 0)             (11.3426 0 0)             (39.9937 0 0)             (61.1369 0 0)
         0.68             (1.0779e-10 0 0)             (1.71493e-09 0 0)             (11.8911 0 0)             (40.0687 0 0)             (61.201 0 0)
         0.69             (-1.57726e-10 0 0)             (1.40685e-09 0 0)             (12.4074 0 0)             (40.1429 0 0)             (61.2646 0 0)
          0.7             (-6.95388e-11 0 0)             (1.70027e-09 0 0)             (12.8966 0 0)             (40.2161 0 0)             (61.3274 0 0)
         0.71             (2.53232e-10 0 0)             (1.88276e-09 0 0)             (13.3632 0 0)             (40.2883 0 0)             (61.3897 0 0)
         0.72             (2.16422e-10 0 0)             (1.82091e-09 0 0)             (13.807 0 0)             (40.3597 0 0)             (61.4514 0 0)
         0.73             (-3.01809e-11 0 0)             (1.90118e-09 0 0)             (14.2276 0 0)             (40.4302 0 0)             (61.5125 0 0)
         0.74             (-1.51413e-10 0 0)             (1.87973e-09 0 0)             (14.6264 0 0)             (40.4997 0 0)             (61.573 0 0)
         0.75             (-1.03196e-10 0 0)             (2.01954e-09 0 0)             (15.0052 0 0)             (40.568 0 0)             (61.633 0 0)
         0.76             (2.74021e-10 0 0)             (2.07756e-09 0 0)             (15.3657 0 0)             (40.6347 0 0)             (61.6924 0 0)
         0.77             (3.35449e-11 0 0)             (2.35197e-09 0 0)             (15.7092 0 0)             (40.6997 0 0)             (61.7513 0 0)
         0.78             (4.56949e-11 0 0)             (2.40627e-09 0 0)             (16.0369 0 0)             (40.7631 0 0)             (61.8096 0 0)
         0.79             (2.99671e-10 0 0)             (2.51192e-09 0 0)             (16.3494 0 0)             (40.8252 0 0)             (61.8673 0 0)
          0.8             (6.84729e-11 0 0)             (2.67671e-09 0 0)             (16.6472 0 0)             (40.8864 0 0)             (61.9246 0 0)
         0.81             (9.70858e-11 0 0)             (4.82587e-09 0 0)             (16.9316 0 0)             (40.9467 0 0)             (61.9813 0 0)
         0.82             (2.80003e-10 0 0)             (2.05863e-08 0 0)             (17.2033 0 0)             (41.0062 0 0)             (62.0376 0 0)
         0.83             (-9.13413e-11 0 0)             (6.62638e-08 0 0)             (17.4624 0 0)             (41.0652 0 0)             (62.0932 0 0)
         0.84             (-6.62399e-11 0 0)             (1.68867e-07 0 0)             (17.7088 0 0)             (41.1243 0 0)             (62.148 0 0)
         0.85             (2.03948e-10 0 0)             (4.05612e-07 0 0)             (17.9426 0 0)             (41.1839 0 0)             (62.2018 0 0)
         0.86             (1.12611e-10 0 0)             (9.37021e-07 0 0)             (18.1646 0 0)             (41.2438 0 0)             (62.2546 0 0)
         0.87             (-1.07781e-10 0 0)             (2.08464e-06 0 0)             (18.3757 0 0)             (41.303 0 0)             (62.3064 0 0)
         0.88             (2.11177e-11 0 0)             (4.48142e-06 0 0)             (18.5767 0 0)             (41.3609 0 0)             (62.3574 0 0)
         0.89             (1.89603e-10 0 0)             (9.32993e-06 0 0)             (18.7683 0 0)             (41.417 0 0)             (62.4079 0 0)
          0.9             (-4.63024e-11 0 0)             (1.88316e-05 0 0)             (18.951 0 0)             (41.4716 0 0)             (62.458 0 0)
         0.91             (-2.27754e-11 0 0)             (3.68805e-05 0 0)             (19.1252 0 0)             (41.5255 0 0)             (62.508 0 0)
         0.92             (2.22067e-10 0 0)             (7.01344e-05 0 0)             (19.2917 0 0)             (41.579 0 0)             (62.5581 0 0)
         0.93             (1.57229e-10 0 0)             (0.000129602 0 0)             (19.4507 0 0)             (41.6322 0 0)             (62.6086 0 0)
         0.94             (-9.84175e-11 0 0)             (0.000232892 0 0)             (19.6024 0 0)             (41.6852 0 0)             (62.6597 0 0)
         0.95             (-7.76261e-11 0 0)             (0.000407281 0 0)             (19.7466 0 0)             (41.7378 0 0)             (62.711 0 0)
         0.96             (2.58025e-10 0 0)             (0.000693688 0 0)             (19.8832 0 0)             (41.7898 0 0)             (62.7621 0 0)
         0.97             (1.84148e-10 0 0)             (0.00115163 0 0)             (20.0126 0 0)             (41.8413 0 0)             (62.8123 0 0)
         0.98             (-7.50445e-12 0 0)             (0.00186507 0 0)             (20.1352 0 0)             (41.8922 0 0)             (62.8614 0 0)
         0.99             (-5.16898e-11 0 0)             (0.002949 0 0)             (20.2516 0 0)             (41.9426 0 0)             (62.9096 0 0)
            1             (2.33882e-10 0 0)             (0.00455627 0 0)             (20.3624 0 0)             (41.9926 0 0)             (62.9571 0 0)
         1.01             (1.45354e-10 0 0)             (0.00688413 0 0)             (20.4681 0 0)             (42.0423 0 0)             (63.0044 0 0)
         1.02             (-4.6324e-11 0 0)             (0.0101793 0 0)             (20.5692 0 0)             (42.0917 0 0)             (63.0515 0 0)
         1.03             (1.77632e-10 0 0)             (0.0147401 0 0)             (20.666 0 0)             (42.1408 0 0)             (63.0985 0 0)
         1.04             (3.06822e-10 0 0)             (0.0209136 0 0)             (20.7593 0 0)             (42.1895 0 0)             (63.1454 0 0)
         1.05             (1.51305e-10 0 0)             (0.0290852 0 0)             (20.8492 0 0)             (42.2376 0 0)             (63.1921 0 0)
         1.06             (-4.28715e-11 0 0)             (0.0396566 0 0)             (20.9363 0 0)             (42.285 0 0)             (63.2385 0 0)
         1.07             (1.5989e-10 0 0)             (0.0530101 0 0)             (21.0209 0 0)             (42.3318 0 0)             (63.2847 0 0)
         1.08             (2.86388e-10 0 0)             (0.0694577 0 0)             (21.1034 0 0)             (42.3778 0 0)             (63.3306 0 0)
         1.09             (6.51061e-11 0 0)             (0.089174 0 0)             (21.184 0 0)             (42.4232 0 0)             (63.3763 0 0)
          1.1             (7.30496e-11 0 0)             (0.112121 0 0)             (21.2632 0 0)             (42.4681 0 0)             (63.4219 0 0)
         1.11             (2.73909e-10 0 0)             (0.137976 0 0)             (21.341 0 0)             (42.5126 0 0)             (63.4673 0 0)
         1.12             (2.45649e-10 0 0)             (0.166077 0 0)             (21.4175 0 0)             (42.5568 0 0)             (63.5125 0 0)
         1.13             (2.70911e-11 0 0)             (0.195417 0 0)             (21.4927 0 0)             (42.6007 0 0)             (63.5574 0 0)
         1.14             (1.86884e-10 0 0)             (0.224696 0 0)             (21.5669 0 0)             (42.6445 0 0)             (63.6019 0 0)
         1.15             (2.733e-10 0 0)             (0.252441 0 0)             (21.6402 0 0)             (42.688 0 0)             (63.6459 0 0)
         1.16             (8.42077e-12 0 0)             (0.277162 0 0)             (21.7127 0 0)             (42.7312 0 0)             (63.6894 0 0)
         1.17             (-4.88547e-11 0 0)             (0.297954 0 0)             (21.7845 0 0)             (42.7739 0 0)             (63.7324 0 0)
         1.18             (2.08092e-10 0 0)             (0.312012 0 0)             (21.8557 0 0)             (42.8161 0 0)             (63.775 0 0)
         1.19             (2.34358e-10 0 0)             (0.332054 0 0)             (21.9264 0 0)             (42.8578 0 0)             (63.8172 0 0)
          1.2             (-6.18397e-11 0 0)             (0.360362 0 0)             (21.9967 0 0)             (42.8988 0 0)             (63.8592 0 0)
         1.21             (-9.65574e-11 0 0)             (0.396703 0 0)             (22.0666 0 0)             (42.9394 0 0)             (63.901 0 0)
         1.22             (3.76822e-11 0 0)             (0.449645 0 0)             (22.1362 0 0)             (42.9795 0 0)             (63.9428 0 0)
         1.23             (1.82519e-10 0 0)             (0.516549 0 0)             (22.2055 0 0)             (43.0193 0 0)             (63.9844 0 0)
         1.24             (4.75069e-11 0 0)             (0.603884 0 0)             (22.2743 0 0)             (43.0589 0 0)             (64.0259 0 0)
         1.25             (-2.12995e-11 0 0)             (0.711775 0 0)             (22.3426 0 0)             (43.0984 0 0)             (64.0672 0 0)
         1.26             (1.95196e-10 0 0)             (0.841344 0 0)             (22.4103 0 0)             (43.1378 0 0)             (64.1082 0 0)
         1.27             (-4.87237e-11 0 0)             (0.993918 0 0)             (22.4771 0 0)             (43.177 0 0)             (64.1489 0 0)
         1.28             (1.33562e-10 0 0)             (1.16668 0 0)             (22.5432 0 0)             (43.216 0 0)             (64.1891 0 0)
         1.29             (2.25283e-10 0 0)             (1.35574 0 0)             (22.6087 0 0)             (43.2547 0 0)             (64.2288 0 0)
          1.3             (-8.83231e-11 0 0)             (1.55474 0 0)             (22.6735 0 0)             (43.2929 0 0)             (64.2683 0 0)
         1.31             (1.69078e-10 0 0)             (1.75444 0 0)             (22.7377 0 0)             (43.3308 0 0)             (64.3074 0 0)
         1.32             (3.19506e-10 0 0)             (1.94635 0 0)             (22.8012 0 0)             (43.3681 0 0)             (64.3464 0 0)
         1.33             (3.55932e-11 0 0)             (2.12161 0 0)             (22.8641 0 0)             (43.405 0 0)             (64.3853 0 0)
         1.34             (1.67739e-10 0 0)             (2.27296 0 0)             (22.9263 0 0)             (43.4415 0 0)             (64.4241 0 0)
         1.35             (3.66758e-10 0 0)             (2.39494 0 0)             (22.9879 0 0)             (43.4777 0 0)             (64.4629 0 0)
         1.36             (1.67053e-10 0 0)             (2.48975 0 0)             (23.049 0 0)             (43.5136 0 0)             (64.5017 0 0)
         1.37             (2.74367e-10 0 0)             (2.55786 0 0)             (23.1096 0 0)             (43.5492 0 0)             (64.5403 0 0)
         1.38             (3.29446e-10 0 0)             (2.60757 0 0)             (23.1696 0 0)             (43.5845 0 0)             (64.5787 0 0)
         1.39             (2.27597e-10 0 0)             (2.64209 0 0)             (23.2291 0 0)             (43.6197 0 0)             (64.6168 0 0)
          1.4             (4.17565e-10 0 0)             (2.66771 0 0)             (23.2878 0 0)             (43.6546 0 0)             (64.6546 0 0)
         1.41             (5.46704e-10 0 0)             (2.68753 0 0)             (23.3457 0 0)             (43.6893 0 0)             (64.692 0 0)
         1.42             (2.74891e-10 0 0)             (2.70063 0 0)             (23.4027 0 0)             (43.7237 0 0)             (64.729 0 0)
         1.43             (4.59603e-10 0 0)             (2.71731 0 0)             (23.4589 0 0)             (43.7579 0 0)             (64.7658 0 0)
         1.44             (6.86991e-10 0 0)             (2.72281 0 0)             (23.5144 0 0)             (43.7918 0 0)             (64.8023 0 0)
         1.45             (7.17392e-10 0 0)             (2.74897 0 0)             (23.5693 0 0)             (43.8253 0 0)             (64.8386 0 0)
         1.46             (6.852e-10 0 0)             (2.69269 0 0)             (23.6236 0 0)             (43.8585 0 0)             (64.8748 0 0)
         1.47             (1.14568e-09 0 0)             (2.78094 0 0)             (23.6776 0 0)             (43.8913 0 0)             (64.9109 0 0)
         1.48             (1.41008e-09 0 0)             (2.78326 0 0)             (23.7311 0 0)             (43.9237 0 0)             (64.9468 0 0)
         1.49             (1.78046e-09 0 0)             (2.97077 0 0)             (23.7842 0 0)             (43.9558 0 0)             (64.9826 0 0)
          1.5             (2.87744e-09 0 0)             (2.98892 0 0)             (23.8369 0 0)             (43.9875 0 0)             (65.0182 0 0)
         1.51             (4.33782e-09 0 0)             (3.20303 0 0)             (23.889 0 0)             (44.0189 0 0)             (65.0538 0 0)
         1.52             (7.03847e-09 0 0)             (3.24254 0 0)             (23.9407 0 0)             (44.0501 0 0)             (65.0891 0 0)
         1.53             (1.26384e-08 0 0)             (3.55137 0 0)             (23.9918 0 0)             (44.0811 0 0)             (65.1242 0 0)
         1.54             (2.63481e-08 0 0)             (3.58584 0 0)             (24.0424 0 0)             (44.1118 0 0)             (65.1591 0 0)
         1.55             (5.15733e-08 0 0)             (3.60727 0 0)             (24.0925 0 0)             (44.1424 0 0)             (65.1937 0 0)
         1.56             (9.42143e-08 0 0)             (3.72753 0 0)             (24.1421 0 0)             (44.1729 0 0)             (65.228 0 0)
         1.57             (1.63164e-07 0 0)             (3.68979 0 0)             (24.1911 0 0)             (44.2031 0 0)             (65.2621 0 0)
         1.58             (2.7681e-07 0 0)             (3.68198 0 0)             (24.2396 0 0)             (44.2332 0 0)             (65.2959 0 0)
         1.59             (4.60633e-07 0 0)             (3.71214 0 0)             (24.2875 0 0)             (44.263 0 0)             (65.3296 0 0)
          1.6             (7.54729e-07 0 0)             (3.82667 0 0)             (24.3348 0 0)             (44.2926 0 0)             (65.363 0 0)
         1.61             (1.22032e-06 0 0)             (3.8206 0 0)             (24.3816 0 0)             (44.3219 0 0)             (65.3964 0 0)
         1.62             (1.94924e-06 0 0)             (3.76876 0 0)             (24.4278 0 0)             (44.351 0 0)             (65.4296 0 0)
         1.63             (3.07724e-06 0 0)             (4.00298 0 0)             (24.4735 0 0)             (44.3798 0 0)             (65.4627 0 0)
         1.64             (4.80207e-06 0 0)             (3.9145 0 0)             (24.5187 0 0)             (44.4084 0 0)             (65.4958 0 0)
         1.65             (7.40784e-06 0 0)             (4.06907 0 0)             (24.5635 0 0)             (44.4368 0 0)             (65.5288 0 0)
         1.66             (1.12972e-05 0 0)             (4.14326 0 0)             (24.6079 0 0)             (44.4651 0 0)             (65.5616 0 0)
         1.67             (1.70332e-05 0 0)             (4.22223 0 0)             (24.6519 0 0)             (44.4931 0 0)             (65.5944 0 0)
         1.68             (2.53918e-05 0 0)             (4.34273 0 0)             (24.6956 0 0)             (44.521 0 0)             (65.627 0 0)
         1.69             (3.74285e-05 0 0)             (4.45356 0 0)             (24.7389 0 0)             (44.5487 0 0)             (65.6595 0 0)
          1.7             (5.45585e-05 0 0)             (4.63282 0 0)             (24.7818 0 0)             (44.5762 0 0)             (65.6918 0 0)
         1.71             (7.86529e-05 0 0)             (4.68371 0 0)             (24.8242 0 0)             (44.6035 0 0)             (65.7239 0 0)
         1.72             (0.00011215 0 0)             (4.88479 0 0)             (24.866 0 0)             (44.6307 0 0)             (65.7558 0 0)
         1.73             (0.000158185 0 0)             (5.02081 0 0)             (24.9074 0 0)             (44.6576 0 0)             (65.7877 0 0)
         1.74             (0.000220725 0 0)             (5.16954 0 0)             (24.9483 0 0)             (44.6842 0 0)             (65.8193 0 0)
         1.75             (0.000304723 0 0)             (5.33933 0 0)             (24.9888 0 0)             (44.7106 0 0)             (65.8509 0 0)
         1.76             (0.000416268 0 0)             (5.48641 0 0)             (25.0289 0 0)             (44.7367 0 0)             (65.8824 0 0)
         1.77             (0.000562731 0 0)             (5.63049 0 0)             (25.0686 0 0)             (44.7626 0 0)             (65.9137 0 0)
         1.78             (0.000752895 0 0)             (5.74745 0 0)             (25.108 0 0)             (44.7882 0 0)             (65.945 0 0)
         1.79             (0.000997055 0 0)             (5.92383 0 0)             (25.147 0 0)             (44.8137 0 0)             (65.9761 0 0)
          1.8             (0.00130706 0 0)             (6.08698 0 0)             (25.1858 0 0)             (44.839 0 0)             (66.0071 0 0)
         1.81             (0.00169631 0 0)             (6.22134 0 0)             (25.2243 0 0)             (44.8642 0 0)             (66.038 0 0)
         1.82             (0.00217959 0 0)             (6.33236 0 0)             (25.2624 0 0)             (44.8893 0 0)             (66.0687 0 0)
         1.83             (0.00277289 0 0)             (6.49738 0 0)             (25.3002 0 0)             (44.9143 0 0)             (66.0992 0 0)
         1.84             (0.00349292 0 0)             (6.60718 0 0)             (25.3376 0 0)             (44.9392 0 0)             (66.1295 0 0)
         1.85             (0.00435656 0 0)             (6.7253 0 0)             (25.3747 0 0)             (44.9639 0 0)             (66.1596 0 0)
         1.86             (0.00538002 0 0)             (6.8427 0 0)             (25.4115 0 0)             (44.9885 0 0)             (66.1896 0 0)
         1.87             (0.00657775 0 0)             (7.00461 0 0)             (25.448 0 0)             (45.013 0 0)             (66.2195 0 0)
         1.88             (0.00796107 0 0)             (7.09642 0 0)             (25.4841 0 0)             (45.0372 0 0)             (66.2492 0 0)
         1.89             (0.00953657 0 0)             (7.22289 0 0)             (25.5199 0 0)             (45.0613 0 0)             (66.279 0 0)
          1.9             (0.0113043 0 0)             (7.37884 0 0)             (25.5553 0 0)             (45.0852 0 0)             (66.3087 0 0)
         1.91             (0.0132556 0 0)             (7.42177 0 0)             (25.5905 0 0)             (45.1089 0 0)             (66.3383 0 0)
         1.92             (0.0153712 0 0)             (7.636 0 0)             (25.6252 0 0)             (45.1324 0 0)             (66.3679 0 0)
         1.93             (0.0176194 0 0)             (7.68168 0 0)             (25.6597 0 0)             (45.1557 0 0)             (66.3975 0 0)
         1.94             (0.0199543 0 0)             (7.8343 0 0)             (25.6938 0 0)             (45.1789 0 0)             (66.4269 0 0)
         1.95             (0.0223148 0 0)             (7.97496 0 0)             (25.7277 0 0)             (45.2018 0 0)             (66.4563 0 0)
         1.96             (0.024625 0 0)             (8.04983 0 0)             (25.7612 0 0)             (45.2246 0 0)             (66.4856 0 0)