# Probe 0 (1 0 0)
# Probe 1 (110 0 0)
# Probe 2 (200 0 0)
# Probe 3 (242.5 0 0)
# Probe 4 (255 0 0)
#       Probe             0             1             2             3             4
#        Time
            0             (0 0 0)             (0 0 0)             (0 0 0)             (0 0 0)             (0 0 0)
         0.01             (-4.7047e-11 0 0)             (-1.72192e-11 0 0)             (4.27062e-11 0 0)             (6.80155e-11 0 0)             (14.0038 0 0)
         0.02             (5.74251e-11 0 0)             (4.86117e-13 0 0)             (4.6367e-11 0 0)             (1.30767e-10 0 0)             (36.4268 0 0)
         0.03             (1.74709e-10 0 0)             (-7.20462e-11 0 0)             (4.97652e-12 0 0)             (-1.14906e-10 0 0)             (45.643 0 0)
         0.04             (1.60792e-10 0 0)             (7.08011e-11 0 0)             (-7.5085e-11 0 0)             (1.8473e-09 0 0)             (50.7436 0 0)
         0.05             (6.22366e-12 0 0)             (1.0332e-10 0 0)             (-1.74479e-10 0 0)             (1.25625e-06 0 0)             (54.2499 0 0)
         0.06             (-6.21804e-11 0 0)             (1.37348e-10 0 0)             (-1.26998e-11 0 0)             (0.00019128 0 0)             (56.3728 0 0)
         0.07             (1.15649e-11 0 0)             (1.26148e-10 0 0)             (-1.56108e-10 0 0)             (0.00474164 0 0)             (57.6405 0 0)
         0.08             (8.20132e-11 0 0)             (2.33643e-11 0 0)             (-2.70729e-10 0 0)             (0.0439582 0 0)             (58.3112 0 0)
         0.09             (-3.12089e-11 0 0)             (1.79722e-10 0 0)             (-5.79601e-11 0 0)             (0.229888 0 0)             (58.5513 0 0)
          0.1             (-1.20111e-11 0 0)             (1.40306e-10 0 0)             (2.77e-10 0 0)             (1.21564 0 0)             (58.4777 0 0)
         0.11             (1.48133e-10 0 0)             (-1.23277e-10 0 0)             (6.81967e-11 0 0)             (4.0581 0 0)             (58.2235 0 0)
         0.12             (1.47631e-10 0 0)             (-1.53024e-11 0 0)             (-1.44558e-11 0 0)             (4.30643 0 0)             (57.8928 0 0)
         0.13             (-2.07614e-11 0 0)             (9.32512e-12 0 0)             (-1.86636e-11 0 0)             (5.2778 0 0)             (57.5576 0 0)
         0.14             (-8.63586e-11 0 0)             (6.01799e-11 0 0)             (1.90055e-11 0 0)             (7.45425 0 0)             (57.2487 0 0)
         0.15             (-3.7426e-11 0 0)             (-1.09574e-11 0 0)             (3.64232e-11 0 0)             (10.4543 0 0)             (56.9894 0 0)
         0.16             (7.75824e-11 0 0)             (7.36219e-11 0 0)             (-7.86081e-11 0 0)             (13.5976 0 0)             (56.7861 0 0)
         0.17             (-6.48216e-11 0 0)             (1.18839e-10 0 0)             (-1.86779e-10 0 0)             (16.511 0 0)             (56.637 0 0)
         0.18             (-1.27753e-10 0 0)             (2.7683e-10 0 0)             (1.59808e-10 0 0)             (19.0933 0 0)             (56.5396 0 0)
         0.19             (6.26125e-11 0 0)             (3.00354e-10 0 0)             (4.39533e-10 0 0)             (21.3585 0 0)             (56.4871 0 0)
          0.2             (9.50192e-11 0 0)             (2.16378e-10 0 0)             (6.85183e-10 0 0)             (23.3454 0 0)             (56.4711 0 0)
         0.21             (-1.4083e-11 0 0)             (2.94859e-10 0 0)             (8.37642e-10 0 0)             (25.0936 0 0)             (56.4845 0 0)
         0.22             (-8.41669e-11 0 0)             (4.1702e-10 0 0)             (1.17537e-09 0 0)             (26.6372 0 0)             (56.5202 0 0)
         0.23             (5.27986e-12 0 0)             (2.37623e-10 0 0)             (1.57375e-09 0 0)             (28.0042 0 0)             (56.5731 0 0)
         0.24             (4.37283e-12 0 0)             (2.08061e-11 0 0)             (1.92734e-09 0 0)             (29.218 0 0)             (56.6382 0 0)
         0.25             (-5.34471e-11 0 0)             (-1.46631e-10 0 0)             (1.95537e-09 0 0)             (30.2988 0 0)             (56.7121 0 0)
         0.26             (-9.93736e-11 0 0)             (-2.93911e-10 0 0)             (2.24599e-09 0 0)             (31.2632 0 0)             (56.7921 0 0)
         0.27             (-3.74989e-12 0 0)             (-2.53349e-10 0 0)             (7.78743e-09 0 0)             (32.1254 0 0)             (56.8761 0 0)
         0.28             (1.45428e-10 0 0)             (-2.40446e-11 0 0)             (7.50221e-08 0 0)             (32.8972 0 0)             (56.9627 0 0)
         0.29             (7.6794e-11 0 0)             (1.18205e-10 0 0)             (5.4008e-07 0 0)             (33.5883 0 0)             (57.0509 0 0)
          0.3             (-6.91323e-11 0 0)             (2.98318e-11 0 0)             (3.15459e-06 0 0)             (34.2065 0 0)             (57.14 0 0)
         0.31             (-1.27927e-10 0 0)             (-2.24927e-11 0 0)             (1.52889e-05 0 0)             (34.7582 0 0)             (57.2294 0 0)
         0.32             (7.14575e-11 0 0)             (8.52497e-11 0 0)             (6.26194e-05 0 0)             (35.2481 0 0)             (57.3188 0 0)
         0.33             (1.41081e-10 0 0)             (7.45551e-12 0 0)             (0.000220415 0 0)             (35.6807 0 0)             (57.4077 0 0)
         0.34             (-5.70682e-11 0 0)             (-1.09727e-10 0 0)             (0.000678084 0 0)             (36.0597 0 0)             (57.4959 0 0)
         0.35             (-1.81706e-10 0 0)             (1.5078e-10 0 0)             (0.00185406 0 0)             (36.389 0 0)             (57.5835 0 0)
         0.36             (-1.77397e-10 0 0)             (-4.89038e-11 0 0)             (0.00457806 0 0)             (36.6723 0 0)             (57.6702 0 0)
         0.37             (-1.26426e-11 0 0)             (-2.49952e-10 0 0)             (0.0103499 0 0)             (36.9134 0 0)             (57.7561 0 0)
         0.38             (-2.23129e-12 0 0)             (-1.68485e-10 0 0)             (0.0216405 0 0)             (37.1167 0 0)             (57.841 0 0)
         0.39             (-8.64837e-11 0 0)             (-3.01232e-10 0 0)             (0.0420609 0 0)             (37.2869 0 0)             (57.9251 0 0)
          0.4             (-4.23834e-11 0 0)             (-1.75517e-10 0 0)             (0.075947 0 0)             (37.4288 0 0)             (58.0082 0 0)
         0.41             (9.84711e-11 0 0)             (1.83834e-10 0 0)             (0.126656 0 0)             (37.5474 0 0)             (58.0903 0 0)
         0.42             (-1.82712e-11 0 0)             (2.63164e-10 0 0)             (0.193308 0 0)             (37.6475 0 0)             (58.1713 0 0)
         0.43             (-1.0994e-10 0 0)             (1.47746e-10 0 0)             (0.267395 0 0)             (37.7337 0 0)             (58.2514 0 0)
         0.44             (9.95809e-12 0 0)             (1.2954e-10 0 0)             (0.346957 0 0)             (37.81 0 0)             (58.3306 0 0)
         0.45             (1.60286e-10 0 0)             (7.04681e-11 0 0)             (0.50042 0 0)             (37.8799 0 0)             (58.409 0 0)
         0.46             (1.36433e-10 0 0)             (-1.0484e-10 0 0)             (0.795637 0 0)             (37.9464 0 0)             (58.4864 0 0)
         0.47             (6.39201e-12 0 0)             (-4.6814e-11 0 0)             (1.28169 0 0)             (38.0118 0 0)             (58.563 0 0)
         0.48             (4.61259e-11 0 0)             (-1.34141e-10 0 0)             (1.91561 0 0)             (38.0779 0 0)             (58.6388 0 0)
         0.49             (1.12472e-10 0 0)             (-1.72003e-10 0 0)             (2.50119 0 0)             (38.1458 0 0)             (58.7135 0 0)
          0.5             (1.47203e-11 0 0)             (-8.65188e-11 0 0)             (2.74982 0 0)             (38.2161 0 0)             (58.7867 0 0)
         0.51             (-6.65922e-11 0 0)             (-1.96677e-10 0 0)             (2.9155 0 0)             (38.2889 0 0)             (58.8585 0 0)
         0.52             (5.07022e-11 0 0)             (-1.49662e-10 0 0)             (3.02677 0 0)             (38.3642 0 0)             (58.9295 0 0)
         0.53             (1.65126e-10 0 0)             (2.19251e-10 0 0)             (3.08364 0 0)             (38.4417 0 0)             (59.0002 0 0)
         0.54             (1.72222e-10 0 0)             (5.10949e-10 0 0)             (3.15531 0 0)             (38.521 0 0)             (59.0704 0 0)
         0.55             (5.01982e-11 0 0)             (6.98861e-10 0 0)             (3.25092 0 0)             (38.6016 0 0)             (59.1401 0 0)
         0.56             (-6.39957e-11 0 0)             (7.51955e-10 0 0)             (3.4565 0 0)             (38.6832 0 0)             (59.2093 0 0)
         0.57             (-8.99033e-11 0 0)             (8.63887e-10 0 0)             (3.76361 0 0)             (38.7654 0 0)             (59.2778 0 0)
         0.58             (5.11418e-11 0 0)             (9.8845e-10 0 0)             (4.25653 0 0)             (38.8478 0 0)             (59.3457 0 0)
         0.59             (1.36176e-10 0 0)             (7.88198e-10 0 0)             (4.9055 0 0)             (38.9302 0 0)             (59.4128 0 0)
          0.6             (1.87473e-11 0 0)             (7.53429e-10 0 0)             (5.66696 0 0)             (39.0123 0 0)             (59.4793 0 0)
         0.61             (-1.01555e-10 0 0)             (8.74681e-10 0 0)             (6.46601 0 0)             (39.0939 0 0)             (59.545 0 0)
         0.62             (-1.80695e-10 0 0)             (1.15732e-09 0 0)             (7.26652 0 0)             (39.1746 0 0)             (59.6101 0 0)
         0.63             (-7.37912e-11 0 0)             (1.22423e-09 0 0)             (8.04792 0 0)             (39.2532 0 0)             (59.6744 0 0)
         0.64             (5.95009e-11 0 0)             (1.37992e-09 0 0)             (8.78961 0 0)             (39.3306 0 0)             (59.7381 0 0)
         0.65             (3.71426e-11 0 0)             (1.6002e-09 0 0)             (9.47896 0 0)             (39.4069 0 0)             (59.8011 0 0)
         0.66             (7.28076e-12 0 0)             (1.93519e-09 0 0)             (10.1264 0 0)             (39.4824 0 0)             (59.8634 0 0)
         0.67             (5.99269e-11 0 0)             (1.89096e-09 0 0)             (10.7434 0 0)             (39.557 0 0)             (59.9251 0 0)
         0.68             (1.35852e-10 0 0)             (1.82319e-09 0 0)             (11.3283 0 0)             (39.6307 0 0)             (59.9862 0 0)
         0.69             (-8.50277e-12 0 0)             (1.58499e-09 0 0)             (11.8774 0 0)             (39.7034 0 0)             (60.0466 0 0)
          0.7             (-7.18056e-11 0 0)             (1.60821e-09 0 0)             (12.3939 0 0)             (39.7752 0 0)             (60.1065 0 0)
         0.71             (8.25716e-11 0 0)             (1.77391e-09 0 0)             (12.8834 0 0)             (39.8462 0 0)             (60.1657 0 0)
         0.72             (1.88828e-10 0 0)             (1.75367e-09 0 0)             (13.348 0 0)             (39.9162 0 0)             (60.2244 0 0)
         0.73             (9.58529e-11 0 0)             (1.85279e-09 0 0)             (13.7879 0 0)             (39.9854 0 0)             (60.2825 0 0)
         0.74             (-2.66589e-11 0 0)             (1.8329e-09 0 0)             (14.2038 0 0)             (40.0536 0 0)             (60.3401 0 0)
         0.75             (-8.68702e-11 0 0)             (1.94231e-09 0 0)             (14.598 0 0)             (40.1206 0 0)             (60.3971 0 0)
         0.76             (7.44164e-11 0 0)             (2.01621e-09 0 0)             (14.9722 0 0)             (40.1862 0 0)             (60.4535 0 0)
         0.77             (1.01254e-10 0 0)             (2.19817e-09 0 0)             (15.3281 0 0)             (40.2501 0 0)             (60.5095 0 0)
         0.78             (6.01177e-11 0 0)             (2.27394e-09 0 0)             (15.6671 0 0)             (40.3123 0 0)             (60.5648 0 0)
         0.79             (1.50926e-10 0 0)             (2.38446e-09 0 0)             (15.99 0 0)             (40.3732 0 0)             (60.6197 0 0)
          0.8             (1.50904e-10 0 0)             (2.53444e-09 0 0)             (16.2976 0 0)             (40.4332 0 0)             (60.6741 0 0)
         0.81             (9.61728e-11 0 0)             (3.36353e-09 0 0)             (16.5908 0 0)             (40.4922 0 0)             (60.728 0 0)
         0.82             (2.09651e-10 0 0)             (9.9687e-09 0 0)             (16.8708 0 0)             (40.5505 0 0)             (60.7814 0 0)
         0.83             (7.25748e-11 0 0)             (3.37109e-08 0 0)             (17.1378 0 0)             (40.6082 0 0)             (60.8341 0 0)
         0.84             (-1.04249e-11 0 0)             (9.20288e-08 0 0)             (17.3919 0 0)             (40.6659 0 0)             (60.8862 0 0)
         0.85             (5.75572e-11 0 0)             (2.27602e-07 0 0)             (17.6331 0 0)             (40.7241 0 0)             (60.9372 0 0)
         0.86             (1.29931e-10 0 0)             (5.35689e-07 0 0)             (17.862 0 0)             (40.7826 0 0)             (60.9873 0 0)
         0.87             (6.33285e-12 0 0)             (1.21196e-06 0 0)             (18.0795 0 0)             (40.8407 0 0)             (61.0363 0 0)
         0.88             (-2.34129e-11 0 0)             (2.6465e-06 0 0)             (18.2865 0 0)             (40.8975 0 0)             (61.0846 0 0)
         0.89             (9.48492e-11 0 0)             (5.59343e-06 0 0)             (18.4836 0 0)             (40.9526 0 0)             (61.1323 0 0)
          0.9             (3.47092e-11 0 0)             (1.14596e-05 0 0)             (18.6715 0 0)             (41.0062 0 0)             (61.1797 0 0)
         0.91             (-1.6866e-11 0 0)             (2.27814e-05 0 0)             (18.8508 0 0)             (41.0589 0 0)             (61.2268 0 0)
         0.92             (1.01684e-10 0 0)             (4.39814e-05 0 0)             (19.0218 0 0)             (41.1112 0 0)             (61.274 0 0)
         0.93             (1.61839e-10 0 0)             (8.25228e-05 0 0)             (19.1852 0 0)             (41.1632 0 0)             (61.3216 0 0)
         0.94             (4.79404e-11 0 0)             (0.000150603 0 0)             (19.3412 0 0)             (41.215 0 0)             (61.3697 0 0)
         0.95             (-3.90899e-11 0 0)             (0.000267543 0 0)             (19.4897 0 0)             (41.2664 0 0)             (61.4182 0 0)
         0.96             (1.03854e-10 0 0)             (0.000463025 0 0)             (19.6306 0 0)             (41.3173 0 0)             (61.4665 0 0)
         0.97             (1.81769e-10 0 0)             (0.00078132 0 0)             (19.764 0 0)             (41.3676 0 0)             (61.514 0 0)
         0.98             (9.06724e-11 0 0)             (0.00128656 0 0)             (19.8904 0 0)             (41.4174 0 0)             (61.5604 0 0)
         0.99             (1.53278e-11 0 0)             (0.00206908 0 0)             (20.0103 0 0)             (41.4667 0 0)             (61.606 0 0)
            1             (9.49116e-11 0 0)             (0.00325253 0 0)             (20.1244 0 0)             (41.5156 0 0)             (61.6509 0 0)
         1.01             (1.57247e-10 0 0)             (0.00500151 0 0)             (20.2331 0 0)             (41.5641 0 0)             (61.6955 0 0)
         1.02             (5.42999e-11 0 0)             (0.00752866 0 0)             (20.337 0 0)             (41.6124 0 0)             (61.74 0 0)
         1.03             (7.07786e-11 0 0)             (0.0111001 0 0)             (20.4364 0 0)             (41.6603 0 0)             (61.7843 0 0)
         1.04             (1.93977e-10 0 0)             (0.0160368 0 0)             (20.5318 0 0)             (41.7079 0 0)             (61.8286 0 0)
         1.05             (2.17678e-10 0 0)             (0.0227097 0 0)             (20.6238 0 0)             (41.7549 0 0)             (61.8726 0 0)
         1.06             (9.14565e-11 0 0)             (0.0315241 0 0)             (20.7128 0 0)             (41.8013 0 0)             (61.9163 0 0)
         1.07             (7.29449e-11 0 0)             (0.0428911 0 0)             (20.799 0 0)             (41.847 0 0)             (61.9598 0 0)
         1.08             (1.91443e-10 0 0)             (0.0571815 0 0)             (20.8828 0 0)             (41.892 0 0)             (62.0031 0 0)
         1.09             (1.37354e-10 0 0)             (0.0746641 0 0)             (20.9647 0 0)             (41.9364 0 0)             (62.0462 0 0)
          1.1             (9.38603e-11 0 0)             (0.0954307 0 0)             (21.0449 0 0)             (41.9802 0 0)             (62.0891 0 0)
         1.11             (1.84056e-10 0 0)             (0.119319 0 0)             (21.1236 0 0)             (42.0237 0 0)             (62.1319 0 0)
         1.12             (2.33781e-10 0 0)             (0.14585 0 0)             (21.2009 0 0)             (42.0668 0 0)             (62.1746 0 0)
         1.13             (1.3034e-10 0 0)             (0.1742 0 0)             (21.2769 0 0)             (42.1096 0 0)             (62.2169 0 0)
         1.14             (1.19866e-10 0 0)             (0.203232 0 0)             (21.3517 0 0)             (42.1523 0 0)             (62.2589 0 0)
         1.15             (1.99858e-10 0 0)             (0.231588 0 0)             (21.4255 0 0)             (42.1948 0 0)             (62.3004 0 0)
         1.16             (1.19918e-10 0 0)             (0.257844 0 0)             (21.4985 0 0)             (42.2369 0 0)             (62.3415 0 0)
         1.17             (2.7428e-11 0 0)             (0.280796 0 0)             (21.5708 0 0)             (42.2787 0 0)             (62.382 0 0)
         1.18             (7.5605e-11 0 0)             (0.298713 0 0)             (21.6424 0 0)             (42.3199 0 0)             (62.4221 0 0)
         1.19             (1.79423e-10 0 0)             (0.316485 0 0)             (21.7134 0 0)             (42.3606 0 0)             (62.4619 0 0)
          1.2             (6.72514e-11 0 0)             (0.338734 0 0)             (21.784 0 0)             (42.4006 0 0)             (62.5014 0 0)
         1.21             (-2.29768e-11 0 0)             (0.370846 0 0)             (21.8541 0 0)             (42.4402 0 0)             (62.5408 0 0)
         1.22             (-3.01224e-11 0 0)             (0.41508 0 0)             (21.9239 0 0)             (42.4793 0 0)             (62.58 0 0)
         1.23             (7.5931e-11 0 0)             (0.473514 0 0)             (21.9935 0 0)             (42.5181 0 0)             (62.6192 0 0)
         1.24             (1.01424e-10 0 0)             (0.549854 0 0)             (22.0626 0 0)             (42.5567 0 0)             (62.6582 0 0)
         1.25             (3.32976e-11 0 0)             (0.646053 0 0)             (22.1312 0 0)             (42.5951 0 0)             (62.6971 0 0)
         1.26             (1.00212e-10 0 0)             (0.763714 0 0)             (22.1992 0 0)             (42.6335 0 0)             (62.7357 0 0)
         1.27             (5.15609e-11 0 0)             (0.903388 0 0)             (22.2664 0 0)             (42.6717 0 0)             (62.7739 0 0)
         1.28             (4.60922e-11 0 0)             (1.06329 0 0)             (22.3329 0 0)             (42.7097 0 0)             (62.8117 0 0)
         1.29             (1.48477e-10 0 0)             (1.23983 0 0)             (22.3986 0 0)             (42.7475 0 0)             (62.8492 0 0)
          1.3             (4.11446e-11 0 0)             (1.42722 0 0)             (22.4637 0 0)             (42.7848 0 0)             (62.8862 0 0)
         1.31             (4.68237e-11 0 0)             (1.61789 0 0)             (22.5282 0 0)             (42.8217 0 0)             (62.923 0 0)
         1.32             (1.96206e-10 0 0)             (1.80362 0 0)             (22.592 0 0)             (42.8581 0 0)             (62.9596 0 0)
         1.33             (1.35375e-10 0 0)             (1.97627 0 0)             (22.6552 0 0)             (42.8941 0 0)             (62.9961 0 0)
         1.34             (1.08402e-10 0 0)             (2.12938 0 0)             (22.7177 0 0)             (42.9296 0 0)             (63.0326 0 0)
         1.35             (2.41205e-10 0 0)             (2.25872 0 0)             (22.7796 0 0)             (42.9649 0 0)             (63.0691 0 0)
         1.36             (2.21839e-10 0 0)             (2.36368 0 0)             (22.8409 0 0)             (42.9998 0 0)             (63.1055 0 0)
         1.37             (2.13832e-10 0 0)             (2.44567 0 0)             (22.9017 0 0)             (43.0345 0 0)             (63.1417 0 0)
         1.38             (3.06256e-10 0 0)             (2.5083 0 0)             (22.962 0 0)             (43.069 0 0)             (63.1778 0 0)
         1.39             (2.60586e-10 0 0)             (2.55576 0 0)             (23.0217 0 0)             (43.1032 0 0)             (63.2136 0 0)
          1.4             (3.01168e-10 0 0)             (2.59237 0 0)             (23.0807 0 0)             (43.1372 0 0)             (63.2491 0 0)
         1.41             (4.39052e-10 0 0)             (2.62043 0 0)             (23.1389 0 0)             (43.1709 0 0)             (63.2842 0 0)
         1.42             (3.64607e-10 0 0)             (2.64284 0 0)             (23.1963 0 0)             (43.2045 0 0)             (63.319 0 0)
         1.43             (3.61854e-10 0 0)             (2.66104 0 0)             (23.2528 0 0)             (43.2377 0 0)             (63.3535 0 0)
         1.44             (5.23694e-10 0 0)             (2.67609 0 0)             (23.3085 0 0)             (43.2707 0 0)             (63.3878 0 0)
         1.45             (6.47773e-10 0 0)             (2.69056 0 0)             (23.3636 0 0)             (43.3034 0 0)             (63.4219 0 0)
         1.46             (6.37777e-10 0 0)             (2.69233 0 0)             (23.4181 0 0)             (43.3357 0 0)             (63.4558 0 0)
         1.47             (8.74384e-10 0 0)             (2.70666 0 0)             (23.4722 0 0)             (43.3676 0 0)             (63.4896 0 0)
         1.48             (1.13771e-09 0 0)             (2.72691 0 0)             (23.5259 0 0)             (43.3992 0 0)             (63.5233 0 0)
         1.49             (1.43956e-09 0 0)             (2.78009 0 0)             (23.5791 0 0)             (43.4304 0 0)             (63.5569 0 0)
          1.5             (2.04035e-09 0 0)             (2.82765 0 0)             (23.6319 0 0)             (43.4613 0 0)             (63.5903 0 0)
         1.51             (3.1043e-09 0 0)             (2.89195 0 0)             (23.6842 0 0)             (43.4919 0 0)             (63.6236 0 0)
         1.52             (4.83103e-09 0 0)             (2.92234 0 0)             (23.736 0 0)             (43.5222 0 0)             (63.6568 0 0)
         1.53             (8.23044e-09 0 0)             (2.96165 0 0)             (23.7873 0 0)             (43.5523 0 0)             (63.6897 0 0)
         1.54             (1.61241e-08 0 0)             (2.96689 0 0)             (23.8381 0 0)             (43.5822 0 0)             (63.7224 0 0)
         1.55             (3.19503e-08 0 0)             (2.97198 0 0)             (23.8883 0 0)             (43.6119 0 0)             (63.7548 0 0)
         1.56             (6.01094e-08 0 0)             (2.99497 0 0)             (23.938 0 0)             (43.6415 0 0)             (63.787 0 0)
         1.57             (1.06883e-07 0 0)             (3.00314 0 0)             (23.9871 0 0)             (43.6709 0 0)             (63.8189 0 0)
         1.58             (1.84124e-07 0 0)             (3.02 0 0)             (24.0358 0 0)             (43.7001 0 0)             (63.8506 0 0)
         1.59             (3.10064e-07 0 0)             (3.04013 0 0)             (24.0838 0 0)             (43.7291 0 0)             (63.8821 0 0)
          1.6             (5.12937e-07 0 0)             (3.08183 0 0)             (24.1313 0 0)             (43.7578 0 0)             (63.9135 0 0)
         1.61             (8.36202e-07 0 0)             (3.11045 0 0)             (24.1782 0 0)             (43.7863 0 0)             (63.9446 0 0)
         1.62             (1.34572e-06 0 0)             (3.14275 0 0)             (24.2246 0 0)             (43.8146 0 0)             (63.9757 0 0)
         1.63             (2.13979e-06 0 0)             (3.21876 0 0)             (24.2704 0 0)             (43.8426 0 0)             (64.0067 0 0)
         1.64             (3.36296e-06 0 0)             (3.2705 0 0)             (24.3157 0 0)             (43.8704 0 0)             (64.0376 0 0)
         1.65             (5.2249e-06 0 0)             (3.36951 0 0)             (24.3607 0 0)             (43.898 0 0)             (64.0685 0 0)
         1.66             (8.02552e-06 0 0)             (3.45997 0 0)             (24.4052 0 0)             (43.9254 0 0)             (64.0992 0 0)
         1.67             (1.21881e-05 0 0)             (3.58412 0 0)             (24.4493 0 0)             (43.9526 0 0)             (64.1299 0 0)
         1.68             (1.83019e-05 0 0)             (3.7033 0 0)             (24.4931 0 0)             (43.9797 0 0)             (64.1604 0 0)
         1.69             (2.71764e-05 0 0)             (3.85532 0 0)             (24.5365 0 0)             (44.0066 0 0)             (64.1907 0 0)
          1.7             (3.99079e-05 0 0)             (4.02708 0 0)             (24.5794 0 0)             (44.0333 0 0)             (64.2209 0 0)
         1.71             (5.79616e-05 0 0)             (4.17631 0 0)             (24.622 0 0)             (44.0599 0 0)             (64.251 0 0)
         1.72             (8.32681e-05 0 0)             (4.34881 0 0)             (24.664 0 0)             (44.0862 0 0)             (64.2809 0 0)
         1.73             (0.000118336 0 0)             (4.54586 0 0)             (24.7055 0 0)             (44.1123 0 0)             (64.3106 0 0)
         1.74             (0.00016638 0 0)             (4.7161 0 0)             (24.7465 0 0)             (44.1382 0 0)             (64.3402 0 0)
         1.75             (0.000231461 0 0)             (4.90169 0 0)             (24.7871 0 0)             (44.1638 0 0)             (64.3698 0 0)
         1.76             (0.000318634 0 0)             (5.0814 0 0)             (24.8272 0 0)             (44.1892 0 0)             (64.3992 0 0)
         1.77             (0.000434099 0 0)             (5.25227 0 0)             (24.867 0 0)             (44.2142 0 0)             (64.4285 0 0)
         1.78             (0.00058535 0 0)             (5.4154 0 0)             (24.9064 0 0)             (44.2391 0 0)             (64.4577 0 0)
         1.79             (0.000781296 0 0)             (5.56495 0 0)             (24.9456 0 0)             (44.2638 0 0)             (64.4868 0 0)
          1.8             (0.00103236 0 0)             (5.74186 0 0)             (24.9844 0 0)             (44.2884 0 0)             (64.5158 0 0)
         1.81             (0.00135052 0 0)             (5.90424 0 0)             (25.0229 0 0)             (44.3128 0 0)             (64.5446 0 0)
         1.82             (0.00174926 0 0)             (6.0497 0 0)             (25.0611 0 0)             (44.3371 0 0)             (64.5733 0 0)
         1.83             (0.00224345 0 0)             (6.19447 0 0)             (25.0989 0 0)             (44.3614 0 0)             (64.6018 0 0)
         1.84             (0.00284906 0 0)             (6.33305 0 0)             (25.1364 0 0)             (44.3855 0 0)             (64.6301 0 0)
         1.85             (0.00358273 0 0)             (6.46546 0 0)             (25.1736 0 0)             (44.4094 0 0)             (64.6582 0 0)
         1.86             (0.00446108 0 0)             (6.5806 0 0)             (25.2104 0 0)             (44.4333 0 0)             (64.6862 0 0)
         1.87             (0.00549987 0 0)             (6.74394 0 0)             (25.2469 0 0)             (44.4569 0 0)             (64.7141 0 0)
         1.88             (0.00671282 0 0)             (6.86313 0 0)             (25.2831 0 0)             (44.4805 0 0)             (64.7419 0 0)
         1.89             (0.00811021 0 0)             (6.97156 0 0)             (25.3189 0 0)             (44.5038 0 0)             (64.7696 0 0)
          1.9             (0.00969718 0 0)             (7.13623 0 0)             (25.3544 0 0)             (44.527 0 0)             (64.7973 0 0)
         1.91             (0.0114719 0 0)             (7.234 0 0)             (25.3896 0 0)             (44.5499 0 0)             (64.825 0 0)
         1.92             (0.0134234 0 0)             (7.36597 0 0)             (25.4244 0 0)             (44.5727 0 0)             (64.8526 0 0)
         1.93             (0.01553 0 0)             (7.49883 0 0)             (25.4589 0 0)             (44.5953 0 0)             (64.8802 0 0)
         1.94             (0.0177573 0 0)             (7.60463 0 0)             (25.4931 0 0)             (44.6177 0 0)             (64.9077 0 0)
         1.95             (0.0200568 0 0)             (7.74484 0 0)             (25.5269 0 0)             (44.6399 0 0)             (64.9351 0 0)
         1.96             (0.022366 0 0)             (7.84365 0 0)             (25.5605 0 0)             (44.662 0 0)             (64.9625 0 0)