# Probe 0 (249.6 0 0)
# Probe 1 (116.5 0 0)
#       Probe             0             1
#        Time
            0           0.5           0.5
         0.01       0.53368      0.533102
         0.02      0.529861      0.527887
         0.03      0.528229      0.525439
         0.04      0.528426       0.52368
         0.05      0.529513      0.522499
         0.06      0.531111      0.521858
         0.07      0.533616      0.521499
         0.08      0.538253      0.521311
         0.09      0.548394      0.521284
          0.1      0.565992       0.52132
         0.11      0.594399      0.521371
         0.12      0.628862       0.52143
         0.13      0.664279      0.521491
         0.14      0.695135      0.521581
         0.15      0.718536      0.521705
         0.16      0.737543      0.521852
         0.17      0.751557      0.522015
         0.18      0.763531      0.522212
         0.19      0.773604      0.522434
          0.2      0.782232      0.522611
         0.21      0.789475      0.522805
         0.22      0.795788      0.522998
         0.23      0.801087      0.523183
         0.24      0.806033      0.523355
         0.25      0.810267      0.523503
         0.26      0.814175      0.523616
         0.27      0.817791      0.523702
         0.28      0.821048      0.523761
         0.29      0.823771      0.523799
          0.3      0.826443      0.523826
         0.31      0.828959      0.523848
         0.32      0.831236       0.52387
         0.33       0.83331      0.523893
         0.34      0.835237      0.523913
         0.35      0.837038      0.523932
         0.36      0.838791      0.523949
         0.37      0.840405      0.523965
         0.38      0.841966      0.523982
         0.39      0.843446      0.523997
          0.4      0.844779      0.524009
         0.41       0.84592      0.524021
         0.42      0.847069      0.524032
         0.43      0.848047      0.524044
         0.44      0.848997      0.524055
         0.45      0.849987      0.524067
         0.46      0.850909      0.524078
         0.47       0.85183      0.524088
         0.48      0.852704      0.524096
         0.49      0.853562      0.524103
          0.5      0.854419      0.524107
         0.51      0.855213      0.524109
         0.52       0.85596      0.524109
         0.53      0.856723      0.524107
         0.54        0.8574      0.524103
         0.55      0.858057      0.524095
         0.56      0.858664      0.524085
         0.57      0.859267      0.524076
         0.58      0.859841      0.524067
         0.59      0.860415      0.524058
          0.6      0.860996       0.52405
         0.61      0.861555      0.524041
         0.62      0.862056      0.524032
         0.63      0.862594      0.524024
         0.64      0.863066      0.524017
         0.65      0.863577      0.524012
         0.66       0.86405      0.524009
         0.67      0.864576      0.524007
         0.68       0.86497      0.524005
         0.69      0.865453      0.524002
          0.7      0.865837      0.523999
         0.71      0.866226      0.523995
         0.72       0.86663      0.523989
         0.73      0.867008      0.523981
         0.74       0.86738      0.523972
         0.75      0.867737      0.523962
         0.76      0.868084      0.523952
         0.77      0.868433      0.523941
         0.78      0.868754       0.52393
         0.79      0.869078      0.523918
          0.8      0.869428      0.523907
         0.81      0.869761      0.523895
         0.82       0.87007      0.523884
         0.83      0.870418      0.523873
         0.84      0.870729      0.523862
         0.85      0.871061      0.523851
         0.86      0.871356      0.523841
         0.87      0.871638      0.523832
         0.88      0.871906      0.523822
         0.89      0.872158      0.523813
          0.9      0.872388      0.523805
         0.91      0.872621      0.523796
         0.92      0.872857      0.523788
         0.93        0.8731      0.523781
         0.94      0.873338      0.523774
         0.95      0.873579      0.523767
         0.96      0.873832       0.52376
         0.97      0.874082      0.523754
         0.98      0.874332      0.523749
         0.99      0.874567      0.523744
            1      0.874779       0.52374
         1.01      0.874978      0.523736
         1.02      0.875159      0.523732
         1.03      0.875373      0.523729
         1.04      0.875569      0.523727
         1.05      0.875751      0.523725
         1.06      0.875927      0.523723
         1.07       0.87612      0.523722
         1.08      0.876292       0.52372
         1.09      0.876453       0.52372
          1.1      0.876625      0.523719
         1.11       0.87681      0.523719
         1.12      0.876976      0.523718
         1.13      0.877141      0.523716
         1.14      0.877295      0.523714
         1.15      0.877469      0.523712
         1.16      0.877638       0.52371
         1.17      0.877805      0.523709
         1.18      0.877975      0.523709
         1.19      0.878099      0.523709
          1.2      0.878247       0.52371
         1.21      0.878381       0.52371
         1.22      0.878523      0.523709
         1.23      0.878642      0.523709
         1.24      0.878768      0.523708
         1.25      0.878887      0.523707
         1.26      0.879005      0.523706
         1.27      0.879144      0.523705
         1.28      0.879249      0.523703
         1.29      0.879393      0.523702
          1.3      0.879511        0.5237
         1.31      0.879636      0.523698
         1.32      0.879757      0.523697
         1.33      0.879874      0.523695
         1.34      0.880003      0.523692
         1.35       0.88012      0.523691
         1.36      0.880234      0.523688
         1.37      0.880365      0.523685
         1.38       0.88048      0.523682
         1.39      0.880561      0.523679
          1.4      0.880673      0.523675
         1.41      0.880761       0.52368
         1.42       0.88086      0.523684
         1.43       0.88096      0.523686
         1.44      0.881039      0.523687
         1.45      0.881134      0.523688
         1.46       0.88122      0.523687
         1.47      0.881313      0.523686
         1.48      0.881385      0.523685
         1.49      0.881474      0.523684
          1.5      0.881562      0.523684
         1.51      0.881651      0.523684
         1.52      0.881734      0.523684
         1.53      0.881828      0.523683
         1.54      0.881924      0.523682
         1.55      0.882011      0.523679
         1.56      0.882107      0.523675
         1.57      0.882187       0.52367
         1.58      0.882272      0.523664
         1.59      0.882342      0.523658
          1.6      0.882425       0.52365
         1.61      0.882501      0.523642
         1.62      0.882554      0.523633
         1.63      0.882613      0.523623
         1.64      0.882676      0.523614
         1.65      0.882742      0.523604
         1.66      0.882822      0.523594
         1.67      0.882878      0.523584
         1.68      0.882967      0.523574
         1.69      0.883017      0.523564
          1.7       0.88308      0.523555
         1.71      0.883156      0.523545
         1.72      0.883244      0.523532
         1.73      0.883296       0.52352
         1.74      0.883381      0.523509
         1.75      0.883421      0.523496
         1.76      0.883487      0.523484
         1.77      0.883544      0.523471
         1.78      0.883626      0.523459
         1.79      0.883662      0.523449
          1.8      0.883721      0.523441
         1.81      0.883773      0.523437
         1.82      0.883826      0.523436
         1.83       0.88388      0.523436
         1.84      0.883934       0.52345
         1.85      0.883988      0.523471
         1.86      0.884051      0.523495
         1.87      0.884111      0.523522
         1.88      0.884167      0.523553
         1.89      0.884208      0.523588
          1.9      0.884262      0.523628
         1.91       0.88432      0.523671
         1.92      0.884371      0.523722
         1.93      0.884419      0.523778
         1.94      0.884447      0.523839
         1.95      0.884489       0.52391
         1.96      0.884546      0.523987
         1.97      0.884583      0.524075
         1.98      0.884625      0.524173
         1.99      0.884687      0.524282
            2       0.88473      0.524402
         2.01      0.884779      0.524536
         2.02      0.884839      0.524683
         2.03      0.884872      0.524846
         2.04      0.884923      0.525033
         2.05      0.884972      0.525231
         2.06      0.885023      0.525457
         2.07       0.88506      0.525708
         2.08      0.885107      0.525983
         2.09      0.885164      0.526286
          2.1      0.885197      0.526625
         2.11      0.885263      0.526996
         2.12      0.885291      0.527405
         2.13      0.885337      0.527865
         2.14      0.885374      0.528359
         2.15      0.885407      0.528918
         2.16      0.885444      0.529537
         2.17      0.885485      0.530181
         2.18      0.885517      0.530916
         2.19      0.885559      0.531711
          2.2      0.885597      0.532589
         2.21      0.885629      0.533533
         2.22      0.885669      0.534558
         2.23      0.885703      0.535682
         2.24      0.885737      0.536898
         2.25      0.885785      0.538211
         2.26      0.885805      0.539604
         2.27      0.885836      0.541133
         2.28       0.88588      0.542733
         2.29      0.885912      0.544438
          2.3       0.88595      0.546261
         2.31      0.885984      0.548204
         2.32       0.88601      0.550209
         2.33      0.886054      0.552363
         2.34      0.886079      0.554646
         2.35      0.886112      0.556889
         2.36      0.886146      0.559282
         2.37      0.886176      0.561759
         2.38      0.886198      0.564324
         2.39      0.886224      0.566924
          2.4      0.886249      0.569617
         2.41       0.88628      0.572317
         2.42      0.886308      0.575045
         2.43      0.886342      0.577797
         2.44      0.886369      0.580639
         2.45        0.8864       0.58341
         2.46      0.886427      0.586225
         2.47      0.886461      0.589061
         2.48        0.8865      0.591967
         2.49      0.886529      0.594656
          2.5      0.886573      0.597432
         2.51      0.886615      0.600169
         2.52       0.88664      0.602881
         2.53      0.886673       0.60556
         2.54      0.886717      0.608214
         2.55      0.886749      0.610823
         2.56      0.886784      0.613426
         2.57      0.886812      0.616055
         2.58      0.886842      0.618504
         2.59      0.886881      0.620954
          2.6      0.886898      0.623421
         2.61      0.886919      0.625877
         2.62      0.886952      0.628155
         2.63      0.886965      0.630468
         2.64      0.886987      0.632749
         2.65      0.887009      0.635013
         2.66      0.887044      0.637247
         2.67      0.887053      0.639331
         2.68      0.887075      0.641488
         2.69      0.887099      0.643566
          2.7      0.887145      0.645663
         2.71      0.887161      0.647672
         2.72      0.887193      0.649678
         2.73       0.88723      0.651636
         2.74      0.887261      0.653577
         2.75      0.887296      0.655546
         2.76      0.887319      0.657367
         2.77      0.887349      0.659186
         2.78      0.887387       0.66101
         2.79      0.887404      0.662815
          2.8      0.887428      0.664586
         2.81      0.887451      0.666338
         2.82      0.887472         0.668
         2.83      0.887487       0.66971
         2.84      0.887505       0.67137
         2.85      0.887519      0.672998
         2.86      0.887542      0.674603
         2.87      0.887547      0.676195
         2.88      0.887554      0.677791
         2.89       0.88757       0.67931
          2.9      0.887584       0.68085
         2.91      0.887615      0.682371
         2.92      0.887614      0.683829
         2.93      0.887636      0.685295
         2.94      0.887655      0.686757
         2.95      0.887679      0.688177
         2.96      0.887707      0.689597
         2.97      0.887723      0.691002
         2.98      0.887758      0.692389
         2.99      0.887777      0.693722
            3      0.887796      0.695082
         3.01      0.887821      0.696405
         3.02      0.887834      0.697724
         3.03      0.887859      0.699004
         3.04      0.887885      0.700285
         3.05      0.887895      0.701547
         3.06      0.887912      0.702806
         3.07      0.887924      0.704021
         3.08      0.887948      0.705231
         3.09      0.887961      0.706453
          3.1      0.887967      0.707632
         3.11      0.887991      0.708798
         3.12      0.888001      0.709921
         3.13      0.888017      0.711057
         3.14      0.888033      0.712173
         3.15      0.888047      0.713266
         3.16      0.888063      0.714351
         3.17      0.888078      0.715418
         3.18      0.888095      0.716498
         3.19      0.888118      0.717504
          3.2      0.888128      0.718533
         3.21      0.888137      0.719527
         3.22      0.888154      0.720526
         3.23      0.888178      0.721505
         3.24      0.888179      0.722492
         3.25      0.888199      0.723445
         3.26      0.888216      0.724399
         3.27      0.888228       0.72535
         3.28      0.888243      0.726274
         3.29       0.88826      0.727167
          3.3      0.888277      0.728085
