# Probe 0 (249.6 0 0)
# Probe 1 (116.5 0 0)
#       Probe             0             1
#        Time
            0   3.59583e+06   3.59583e+06
         0.01    3.7703e+06   3.76795e+06
         0.02   3.68447e+06   3.68118e+06
         0.03    3.6235e+06   3.65165e+06
         0.04   3.57167e+06   3.63211e+06
         0.05   3.55407e+06   3.61585e+06
         0.06   3.54859e+06   3.60692e+06
         0.07   3.53988e+06   3.60279e+06
         0.08   3.52225e+06   3.59877e+06
         0.09   3.49589e+06   3.59413e+06
          0.1   3.43246e+06   3.59083e+06
         0.11   3.33591e+06   3.58869e+06
         0.12   3.19243e+06   3.58708e+06
         0.13    3.0526e+06   3.58566e+06
         0.14   2.92109e+06   3.58502e+06
         0.15   2.79424e+06   3.58471e+06
         0.16   2.71055e+06   3.58423e+06
         0.17   2.62901e+06   3.58368e+06
         0.18   2.56606e+06   3.58309e+06
         0.19   2.51082e+06   3.58234e+06
          0.2   2.46224e+06   3.58151e+06
         0.21   2.41853e+06   3.58068e+06
         0.22   2.38037e+06   3.57986e+06
         0.23   2.34345e+06   3.57916e+06
         0.24   2.31506e+06    3.5785e+06
         0.25   2.28556e+06   3.57793e+06
         0.26   2.25904e+06   3.57743e+06
         0.27   2.23685e+06   3.57705e+06
         0.28   2.21861e+06   3.57678e+06
         0.29   2.19501e+06    3.5766e+06
          0.3   2.17676e+06   3.57648e+06
         0.31   2.16086e+06   3.57637e+06
         0.32   2.14468e+06   3.57629e+06
         0.33   2.13055e+06   3.57621e+06
         0.34   2.11685e+06   3.57615e+06
         0.35   2.10522e+06   3.57609e+06
         0.36    2.0934e+06   3.57604e+06
         0.37   2.08133e+06   3.57598e+06
         0.38   2.07096e+06   3.57594e+06
         0.39   2.06144e+06   3.57588e+06
          0.4    2.0514e+06   3.57582e+06
         0.41   2.04255e+06   3.57575e+06
         0.42   2.03492e+06   3.57569e+06
         0.43   2.02598e+06   3.57561e+06
         0.44   2.01775e+06   3.57551e+06
         0.45   2.01073e+06   3.57543e+06
         0.46     2.003e+06   3.57533e+06
         0.47   1.99657e+06   3.57524e+06
         0.48   1.98999e+06   3.57515e+06
         0.49   1.98377e+06   3.57507e+06
          0.5   1.97887e+06   3.57499e+06
         0.51   1.97288e+06   3.57491e+06
         0.52   1.96622e+06   3.57485e+06
         0.53   1.96163e+06   3.57479e+06
         0.54   1.95589e+06   3.57474e+06
         0.55     1.951e+06   3.57471e+06
         0.56    1.9459e+06   3.57468e+06
         0.57   1.94116e+06   3.57466e+06
         0.58   1.93622e+06   3.57464e+06
         0.59   1.93176e+06   3.57462e+06
          0.6   1.92824e+06   3.57461e+06
         0.61   1.92415e+06    3.5746e+06
         0.62   1.91955e+06    3.5746e+06
         0.63   1.91625e+06   3.57461e+06
         0.64   1.91132e+06   3.57463e+06
         0.65   1.90784e+06   3.57464e+06
         0.66   1.90381e+06   3.57466e+06
         0.67   1.90122e+06   3.57467e+06
         0.68   1.89636e+06    3.5747e+06
         0.69   1.89392e+06   3.57473e+06
          0.7   1.88966e+06   3.57476e+06
         0.71   1.88616e+06   3.57479e+06
         0.72   1.88317e+06   3.57483e+06
         0.73   1.88024e+06   3.57486e+06
         0.74   1.87685e+06   3.57489e+06
         0.75   1.87386e+06   3.57492e+06
         0.76   1.87084e+06   3.57495e+06
         0.77   1.86803e+06   3.57497e+06
         0.78   1.86495e+06   3.57499e+06
         0.79   1.86202e+06   3.57502e+06
          0.8    1.8602e+06   3.57504e+06
         0.81   1.85718e+06   3.57505e+06
         0.82   1.85412e+06   3.57507e+06
         0.83   1.85216e+06   3.57509e+06
         0.84   1.84933e+06    3.5751e+06
         0.85   1.84714e+06   3.57512e+06
         0.86   1.84459e+06   3.57513e+06
         0.87   1.84227e+06   3.57514e+06
         0.88   1.83991e+06   3.57514e+06
         0.89   1.83772e+06   3.57515e+06
          0.9   1.83539e+06   3.57515e+06
         0.91   1.83307e+06   3.57516e+06
         0.92   1.83123e+06   3.57516e+06
         0.93   1.82908e+06   3.57516e+06
         0.94   1.82728e+06   3.57516e+06
         0.95    1.8251e+06   3.57516e+06
         0.96   1.82312e+06   3.57516e+06
         0.97   1.82123e+06   3.57516e+06
         0.98   1.81952e+06   3.57516e+06
         0.99   1.81775e+06   3.57515e+06
            1   1.81606e+06   3.57515e+06
         1.01   1.81402e+06   3.57514e+06
         1.02   1.81193e+06   3.57513e+06
         1.03    1.8105e+06   3.57513e+06
         1.04   1.80891e+06   3.57512e+06
         1.05   1.80698e+06   3.57511e+06
         1.06   1.80537e+06    3.5751e+06
         1.07   1.80418e+06   3.57509e+06
         1.08   1.80252e+06   3.57508e+06
         1.09   1.80055e+06   3.57507e+06
          1.1   1.79912e+06   3.57506e+06
         1.11     1.798e+06   3.57505e+06
         1.12   1.79638e+06   3.57503e+06
         1.13   1.79488e+06   3.57502e+06
         1.14   1.79332e+06   3.57501e+06
         1.15    1.7922e+06     3.575e+06
         1.16   1.79094e+06   3.57499e+06
         1.17   1.78969e+06   3.57498e+06
         1.18   1.78867e+06   3.57496e+06
         1.19   1.78672e+06   3.57493e+06
          1.2   1.78555e+06   3.57489e+06
         1.21    1.7842e+06   3.57486e+06
         1.22   1.78299e+06   3.57482e+06
         1.23   1.78172e+06   3.57478e+06
         1.24    1.7805e+06   3.57473e+06
         1.25    1.7794e+06   3.57468e+06
         1.26   1.77824e+06   3.57463e+06
         1.27   1.77753e+06   3.57457e+06
         1.28   1.77614e+06    3.5745e+06
         1.29   1.77528e+06   3.57444e+06
          1.3   1.77414e+06   3.57437e+06
         1.31   1.77312e+06   3.57429e+06
         1.32   1.77202e+06   3.57422e+06
         1.33   1.77086e+06   3.57414e+06
         1.34   1.76978e+06   3.57406e+06
         1.35   1.76869e+06   3.57398e+06
         1.36   1.76783e+06    3.5739e+06
         1.37   1.76737e+06   3.57381e+06
         1.38   1.76648e+06   3.57374e+06
         1.39   1.76508e+06   3.57367e+06
          1.4   1.76422e+06    3.5736e+06
         1.41   1.76326e+06   3.57354e+06
         1.42   1.76222e+06   3.57349e+06
         1.43   1.76145e+06   3.57345e+06
         1.44   1.76034e+06   3.57342e+06
         1.45   1.75951e+06    3.5734e+06
         1.46    1.7588e+06    3.5734e+06
         1.47    1.7581e+06   3.57341e+06
         1.48     1.757e+06   3.57343e+06
         1.49   1.75638e+06   3.57344e+06
          1.5   1.75576e+06   3.57345e+06
         1.51   1.75496e+06   3.57347e+06
         1.52   1.75396e+06   3.57349e+06
         1.53   1.75342e+06    3.5735e+06
         1.54    1.7527e+06   3.57353e+06
         1.55   1.75171e+06   3.57355e+06
         1.56   1.75119e+06   3.57357e+06
         1.57   1.75016e+06   3.57359e+06
         1.58   1.74969e+06   3.57362e+06
         1.59   1.74882e+06   3.57364e+06
          1.6   1.74823e+06   3.57366e+06
         1.61    1.7476e+06   3.57368e+06
         1.62   1.74692e+06    3.5737e+06
         1.63   1.74607e+06   3.57372e+06
         1.64   1.74542e+06   3.57374e+06
         1.65   1.74486e+06   3.57375e+06
         1.66   1.74464e+06   3.57376e+06
         1.67   1.74368e+06   3.57377e+06
         1.68   1.74346e+06   3.57378e+06
         1.69   1.74247e+06   3.57378e+06
          1.7   1.74176e+06   3.57378e+06
         1.71   1.74119e+06   3.57378e+06
         1.72   1.74097e+06   3.57377e+06
         1.73   1.74007e+06   3.57377e+06
         1.74   1.73988e+06   3.57375e+06
         1.75    1.7389e+06   3.57373e+06
         1.76   1.73846e+06   3.57371e+06
         1.77    1.7378e+06   3.57369e+06
         1.78    1.7376e+06   3.57366e+06
         1.79    1.7366e+06   3.57363e+06
          1.8   1.73614e+06   3.57361e+06
         1.81   1.73575e+06   3.57358e+06
         1.82    1.7351e+06   3.57353e+06
         1.83   1.73464e+06   3.57347e+06
         1.84   1.73397e+06   3.57339e+06
         1.85    1.7336e+06   3.57331e+06
         1.86   1.73328e+06   3.57323e+06
         1.87   1.73286e+06   3.57312e+06
         1.88    1.7324e+06   3.57301e+06
         1.89   1.73149e+06   3.57289e+06
          1.9   1.73099e+06   3.57275e+06
         1.91   1.73075e+06   3.57258e+06
         1.92   1.73036e+06   3.57244e+06
         1.93    1.7299e+06   3.57223e+06
         1.94   1.72918e+06   3.57198e+06
         1.95   1.72871e+06   3.57174e+06
         1.96   1.72855e+06   3.57146e+06
         1.97   1.72791e+06   3.57115e+06
         1.98   1.72738e+06   3.57085e+06
         1.99   1.72715e+06   3.57049e+06
            2   1.72657e+06   3.57008e+06
         2.01    1.7261e+06   3.56966e+06
         2.02   1.72598e+06   3.56913e+06
         2.03   1.72516e+06   3.56853e+06
         2.04   1.72483e+06   3.56795e+06
         2.05   1.72447e+06   3.56721e+06
         2.06   1.72404e+06    3.5665e+06
         2.07   1.72357e+06    3.5657e+06
         2.08   1.72316e+06   3.56478e+06
         2.09   1.72293e+06   3.56372e+06
          2.1    1.7223e+06   3.56267e+06
         2.11   1.72226e+06   3.56144e+06
         2.12   1.72155e+06   3.56002e+06
         2.13   1.72134e+06   3.55867e+06
         2.14   1.72084e+06   3.55688e+06
         2.15   1.72042e+06   3.55522e+06
         2.16      1.72e+06   3.55335e+06
         2.17   1.71979e+06    3.5509e+06
         2.18   1.71927e+06   3.54867e+06
         2.19   1.71901e+06   3.54603e+06
          2.2   1.71882e+06   3.54337e+06
         2.21   1.71831e+06   3.54023e+06
         2.22   1.71823e+06   3.53678e+06
         2.23   1.71767e+06   3.53335e+06
         2.24    1.7173e+06   3.52939e+06
         2.25   1.71725e+06   3.52528e+06
         2.26   1.71664e+06   3.52048e+06
         2.27   1.71616e+06   3.51584e+06
         2.28   1.71609e+06   3.51054e+06
         2.29   1.71564e+06    3.5048e+06
          2.3   1.71548e+06    3.4989e+06
         2.31   1.71504e+06   3.49303e+06
         2.32   1.71459e+06     3.486e+06
         2.33   1.71451e+06    3.4793e+06
         2.34   1.71406e+06   3.47278e+06
         2.35   1.71371e+06   3.46443e+06
         2.36   1.71352e+06   3.45614e+06
         2.37   1.71339e+06   3.44796e+06
         2.38   1.71278e+06   3.43972e+06
         2.39   1.71243e+06   3.43066e+06
          2.4   1.71212e+06   3.42244e+06
         2.41   1.71195e+06   3.41296e+06
         2.42   1.71153e+06   3.40323e+06
         2.43   1.71146e+06   3.39333e+06
         2.44   1.71114e+06   3.38449e+06
         2.45   1.71085e+06   3.37393e+06
         2.46    1.7104e+06   3.36402e+06
         2.47   1.71023e+06   3.35463e+06
         2.48   1.71004e+06     3.346e+06
         2.49   1.70956e+06   3.33476e+06
          2.5   1.70947e+06   3.32491e+06
         2.51   1.70924e+06   3.31492e+06
         2.52   1.70876e+06   3.30487e+06
         2.53   1.70839e+06   3.29507e+06
         2.54    1.7084e+06   3.28538e+06
         2.55   1.70795e+06    3.2754e+06
         2.56   1.70765e+06   3.26611e+06
         2.57    1.7074e+06   3.25765e+06
         2.58   1.70707e+06   3.24762e+06
         2.59   1.70695e+06    3.2376e+06
          2.6   1.70647e+06   3.22888e+06
         2.61   1.70612e+06    3.2203e+06
         2.62   1.70613e+06   3.21032e+06
         2.63   1.70566e+06   3.20124e+06
         2.64   1.70543e+06   3.19255e+06
         2.65   1.70508e+06   3.18459e+06
         2.66   1.70512e+06   3.17587e+06
         2.67    1.7046e+06   3.16624e+06
         2.68   1.70426e+06   3.15813e+06
         2.69   1.70396e+06    3.1494e+06
          2.7   1.70403e+06   3.14179e+06
         2.71   1.70345e+06   3.13301e+06
         2.72   1.70332e+06   3.12492e+06
         2.73    1.7031e+06   3.11672e+06
         2.74   1.70289e+06   3.10894e+06
         2.75   1.70264e+06   3.10199e+06
         2.76   1.70226e+06   3.09372e+06
         2.77   1.70204e+06   3.08556e+06
         2.78   1.70203e+06   3.07814e+06
         2.79   1.70155e+06   3.07095e+06
          2.8   1.70147e+06    3.0639e+06
         2.81   1.70122e+06   3.05646e+06
         2.82   1.70107e+06   3.04849e+06
         2.83   1.70076e+06   3.04177e+06
         2.84    1.7006e+06   3.03467e+06
         2.85   1.70036e+06   3.02752e+06
         2.86   1.70044e+06    3.0203e+06
         2.87   1.70013e+06   3.01344e+06
         2.88   1.69976e+06   3.00713e+06
         2.89   1.69965e+06   3.00008e+06
          2.9   1.69938e+06   2.99341e+06
         2.91   1.69959e+06   2.98695e+06
         2.92   1.69906e+06   2.97994e+06
         2.93   1.69889e+06   2.97341e+06
         2.94    1.6988e+06   2.96708e+06
         2.95   1.69859e+06   2.96049e+06
         2.96    1.6985e+06   2.95431e+06
         2.97   1.69823e+06   2.94823e+06
         2.98   1.69824e+06    2.9424e+06
         2.99   1.69804e+06   2.93548e+06
            3    1.6978e+06   2.92969e+06
         3.01   1.69766e+06   2.92355e+06
         3.02   1.69736e+06   2.91772e+06
         3.03    1.6973e+06   2.91138e+06
         3.04   1.69736e+06    2.9054e+06
         3.05   1.69691e+06   2.89964e+06
         3.06   1.69685e+06   2.89409e+06
         3.07    1.6966e+06   2.88814e+06
         3.08    1.6966e+06   2.88237e+06
         3.09    1.6965e+06   2.87739e+06
          3.1   1.69614e+06   2.87156e+06
         3.11   1.69609e+06   2.86629e+06
         3.12   1.69583e+06   2.86033e+06
         3.13   1.69567e+06   2.85505e+06
         3.14   1.69557e+06    2.8499e+06
         3.15    1.6954e+06   2.84449e+06
         3.16   1.69526e+06   2.83933e+06
         3.17   1.69507e+06   2.83426e+06
         3.18   1.69507e+06   2.82944e+06
         3.19   1.69506e+06   2.82383e+06
          3.2   1.69477e+06   2.81904e+06
         3.21   1.69451e+06   2.81375e+06
         3.22   1.69444e+06   2.80892e+06
         3.23    1.6944e+06     2.804e+06
         3.24   1.69408e+06   2.79962e+06
         3.25   1.69393e+06   2.79461e+06
         3.26   1.69385e+06   2.79001e+06
         3.27   1.69364e+06   2.78549e+06
         3.28   1.69351e+06   2.78077e+06
         3.29   1.69336e+06   2.77583e+06
          3.3   1.69322e+06   2.77145e+06
