# Probe 0 (249.6 0 0)
# Probe 1 (116.5 0 0)
#       Probe             0             1
#        Time
            0        274.13        274.13
         0.01       275.888       275.725
         0.02       274.922       274.865
         0.03       274.276       274.585
         0.04       273.738       274.385
         0.05        273.56       274.221
         0.06       273.504       274.115
         0.07        273.41       274.073
         0.08       273.211       274.031
         0.09       272.982       273.983
          0.1       272.281       273.948
         0.11       271.202       273.925
         0.12       269.621       273.908
         0.13       267.928       273.893
         0.14       266.391       273.886
         0.15       264.715       273.883
         0.16       263.805       273.878
         0.17       262.636       273.872
         0.18       261.894       273.866
         0.19       261.143       273.858
          0.2       260.402       273.848
         0.21       259.801        273.84
         0.22       259.301       273.831
         0.23       258.809       273.824
         0.24       258.382       273.817
         0.25       258.011       273.811
         0.26       257.567       273.806
         0.27       257.266       273.802
         0.28       257.063       273.799
         0.29       256.642       273.797
          0.3       256.385       273.795
         0.31       256.181       273.794
         0.32        255.86       273.793
         0.33       255.653       273.792
         0.34       255.486       273.792
         0.35       255.325       273.791
         0.36       255.109       273.791
         0.37       254.903        273.79
         0.38       254.738        273.79
         0.39       254.603       273.789
          0.4       254.448       273.788
         0.41       254.309       273.788
         0.42       254.209       273.787
         0.43       254.052       273.786
         0.44        253.92       273.785
         0.45       253.817       273.784
         0.46       253.682       273.783
         0.47       253.581       273.782
         0.48       253.501       273.781
         0.49       253.382       273.781
          0.5       253.312        273.78
         0.51       253.229       273.779
         0.52       253.099       273.778
         0.53        253.05       273.777
         0.54        252.93       273.777
         0.55       252.873       273.777
         0.56       252.795       273.776
         0.57       252.695       273.776
         0.58        252.63       273.776
         0.59       252.544       273.776
          0.6       252.495       273.775
         0.61       252.443       273.775
         0.62       252.348       273.775
         0.63       252.321       273.776
         0.64       252.223       273.776
         0.65       252.157       273.776
         0.66       252.101       273.776
         0.67       252.088       273.776
         0.68       251.964       273.776
         0.69       251.961       273.777
          0.7       251.854       273.777
         0.71       251.799       273.777
         0.72        251.75       273.778
         0.73       251.712       273.778
         0.74       251.647       273.778
         0.75       251.599       273.779
         0.76       251.564       273.779
         0.77        251.52       273.779
         0.78       251.447        273.78
         0.79       251.407        273.78
          0.8       251.394        273.78
         0.81       251.334        273.78
         0.82       251.266        273.78
         0.83       251.249       273.781
         0.84       251.192       273.781
         0.85       251.158       273.781
         0.86       251.107       273.781
         0.87       251.072       273.781
         0.88       251.038       273.781
         0.89       251.005       273.781
          0.9       250.956       273.781
         0.91       250.919       273.781
         0.92       250.919       273.781
         0.93       250.847       273.781
         0.94       250.835       273.781
         0.95       250.799       273.781
         0.96       250.754       273.781
         0.97       250.718       273.781
         0.98        250.69       273.781
         0.99       250.666       273.781
            1       250.647       273.781
         1.01       250.602       273.781
         1.02       250.583       273.781
         1.03       250.535       273.781
         1.04       250.524       273.781
         1.05       250.478       273.781
         1.06       250.458       273.781
         1.07       250.441       273.781
         1.08       250.404       273.781
         1.09       250.372        273.78
          1.1       250.361        273.78
         1.11       250.326        273.78
         1.12       250.308        273.78
         1.13       250.269        273.78
         1.14        250.25        273.78
         1.15       250.231        273.78
         1.16       250.205        273.78
         1.17       250.185       273.779
         1.18       250.179       273.779
         1.19       250.138       273.779
          1.2       250.114       273.779
         1.21       250.089       273.778
         1.22        250.07       273.778
         1.23       250.054       273.777
         1.24       250.024       273.777
         1.25        250.01       273.776
         1.26       249.993       273.776
         1.27       249.974       273.775
         1.28       249.957       273.774
         1.29        249.94       273.774
          1.3       249.928       273.773
         1.31       249.906       273.772
         1.32       249.882       273.771
         1.33       249.866        273.77
         1.34        249.85        273.77
         1.35       249.821       273.769
         1.36       249.807       273.768
         1.37       249.817       273.767
         1.38       249.795       273.766
         1.39       249.761       273.766
          1.4       249.758       273.765
         1.41       249.738       273.764
         1.42       249.721       273.764
         1.43       249.695       273.763
         1.44       249.691       273.763
         1.45        249.67       273.763
         1.46       249.671       273.763
         1.47       249.645       273.763
         1.48       249.619       273.763
         1.49       249.613       273.763
          1.5       249.608       273.763
         1.51       249.589       273.763
         1.52       249.569       273.764
         1.53       249.578       273.764
         1.54       249.553       273.764
         1.55       249.539       273.764
         1.56        249.53       273.764
         1.57       249.504       273.765
         1.58       249.498       273.765
         1.59       249.498       273.765
          1.6       249.486       273.765
         1.61       249.459       273.766
         1.62       249.449       273.766
         1.63       249.432       273.766
         1.64       249.419       273.766
         1.65       249.411       273.766
         1.66       249.426       273.767
         1.67       249.397       273.767
         1.68       249.395       273.767
         1.69       249.377       273.767
          1.7        249.37       273.767
         1.71       249.356       273.767
         1.72        249.35       273.767
         1.73       249.329       273.767
         1.74       249.334       273.766
         1.75       249.316       273.766
         1.76         249.3       273.766
         1.77       249.295       273.766
         1.78       249.293       273.765
         1.79       249.265       273.765
          1.8       249.262       273.765
         1.81       249.252       273.765
         1.82       249.243       273.764
         1.83       249.232       273.763
         1.84        249.22       273.763
         1.85       249.229       273.762
         1.86        249.22       273.761
         1.87       249.207        273.76
         1.88         249.2       273.759
         1.89       249.178       273.757
          1.9       249.175       273.756
         1.91       249.165       273.754
         1.92        249.16       273.753
         1.93       249.161       273.751
         1.94       249.146       273.748
         1.95       249.135       273.745
         1.96       249.136       273.742
         1.97       249.117       273.739
         1.98       249.111       273.736
         1.99       249.102       273.732
            2        249.09       273.728
         2.01       249.088       273.724
         2.02       249.096       273.718
         2.03       249.066       273.711
         2.04       249.066       273.705
         2.05       249.057       273.697
         2.06       249.048        273.69
         2.07       249.046       273.681
         2.08       249.045       273.671
         2.09       249.033       273.659
          2.1       249.018       273.649
         2.11       249.026       273.636
         2.12       249.003        273.62
         2.13       249.002       273.607
         2.14       248.993       273.587
         2.15       248.993       273.569
         2.16       248.976       273.551
         2.17        248.98       273.522
         2.18       248.962       273.499
         2.19       248.958       273.471
          2.2       248.963       273.443
         2.21        248.95        273.41
         2.22        248.96       273.371
         2.23       248.941       273.339
         2.24       248.929       273.292
         2.25       248.934       273.251
         2.26        248.92         273.2
         2.27       248.909       273.149
         2.28       248.916       273.089
         2.29       248.899        273.03
          2.3         248.9       272.964
         2.31       248.892       272.901
         2.32       248.884        272.83
         2.33       248.888       272.753
         2.34       248.874       272.687
         2.35       248.867       272.597
         2.36       248.863       272.501
         2.37       248.865       272.413
         2.38       248.856       272.324
         2.39       248.848       272.223
          2.4       248.846       272.147
         2.41       248.846       272.035
         2.42       248.831       271.926
         2.43       248.833       271.819
         2.44       248.829       271.723
         2.45       248.815       271.605
         2.46       248.808        271.49
         2.47       248.815       271.392
         2.48       248.807       271.307
         2.49       248.794       271.168
          2.5       248.797       271.055
         2.51       248.794       270.951
         2.52       248.779       270.831
         2.53       248.772       270.728
         2.54       248.778       270.619
         2.55       248.767       270.501
         2.56       248.759       270.395
         2.57       248.761       270.311
         2.58       248.754       270.195
         2.59        248.75       270.077
          2.6       248.738       269.976
         2.61       248.733       269.885
         2.62       248.736       269.772
         2.63       248.732       269.669
         2.64       248.728       269.562
         2.65       248.716       269.483
         2.66       248.719       269.374
         2.67       248.704       269.259
         2.68       248.702       269.169
         2.69       248.699       269.063
          2.7       248.703        268.98
         2.71       248.685       268.877
         2.72       248.691       268.781
         2.73       248.679       268.686
         2.74       248.682       268.602
         2.75       248.671        268.52
         2.76        248.67       268.418
         2.77       248.664       268.321
         2.78       248.663       268.231
         2.79       248.651       268.156
          2.8       248.661       268.072
         2.81       248.645       267.981
         2.82       248.643       267.883
         2.83       248.639       267.805
         2.84       248.635       267.724
         2.85       248.631        267.64
         2.86       248.642       267.547
         2.87        248.63       267.464
         2.88       248.626       267.395
         2.89       248.629       267.313
          2.9       248.613       267.226
         2.91       248.623       267.151
         2.92       248.609       267.069
         2.93       248.606       266.992
         2.94       248.614       266.913
         2.95       248.605        266.83
         2.96       248.603       266.756
         2.97         248.6       266.681
         2.98       248.597        266.62
         2.99        248.59       266.528
            3       248.585       266.457
         3.01       248.586       266.383
         3.02       248.576       266.315
         3.03       248.578       266.236
         3.04       248.594       266.159
         3.05       248.569       266.095
         3.06       248.573       266.024
         3.07       248.563       265.954
         3.08       248.565       265.881
         3.09       248.567       265.828
          3.1       248.564       265.753
         3.11       248.557       265.687
         3.12       248.551       265.614
         3.13       248.548       265.543
         3.14       248.552       265.481
         3.15       248.544       265.411
         3.16       248.544       265.346
         3.17       248.542       265.287
         3.18       248.543       265.229
         3.19       248.541       265.153
          3.2       248.535       265.096
         3.21        248.53       265.029
         3.22       248.528       264.969
         3.23       248.527       264.905
         3.24       248.527       264.856
         3.25       248.517       264.787
         3.26        248.52       264.731
         3.27       248.516       264.681
         3.28       248.518        264.62
         3.29        248.51       264.557
          3.3       248.511         264.5
