# Probe 0 (249.6 0 0)
# Probe 1 (116.5 0 0)
#       Probe             0             1
#        Time
            0        274.13        274.13
         0.01       273.143        273.18
         0.02       273.384       273.505
         0.03        273.52       273.644
         0.04        273.56       273.732
         0.05       273.553       273.802
         0.06        273.49       273.841
         0.07       273.393       273.859
         0.08       273.216       273.872
         0.09       272.833       273.882
          0.1       272.163       273.886
         0.11       271.025       273.888
         0.12       269.561       273.889
         0.13       267.845       273.889
         0.14       266.183       273.886
         0.15       264.839       273.882
         0.16       263.606       273.877
         0.17        262.68       273.871
         0.18       261.821       273.864
         0.19        261.06       273.857
          0.2       260.377       273.848
         0.21       259.784        273.84
         0.22       259.243       273.831
         0.23       258.798       273.823
         0.24       258.327       273.816
         0.25       257.948        273.81
         0.26       257.583       273.805
         0.27       257.213       273.801
         0.28       256.872       273.799
         0.29       256.627       273.797
          0.3       256.368       273.795
         0.31        256.11       273.794
         0.32       255.882       273.793
         0.33       255.654       273.793
         0.34       255.453       273.792
         0.35       255.255       273.791
         0.36       255.066       273.791
         0.37       254.903        273.79
         0.38       254.741        273.79
         0.39       254.575       273.789
          0.4       254.437       273.788
         0.41       254.302       273.788
         0.42       254.146       273.787
         0.43       254.031       273.786
         0.44       253.921       273.785
         0.45       253.794       273.784
         0.46       253.695       273.783
         0.47        253.58       273.782
         0.48       253.482       273.781
         0.49       253.382        273.78
          0.5       253.269       273.779
         0.51       253.181       273.779
         0.52       253.108       273.778
         0.53       253.008       273.777
         0.54       252.929       273.777
         0.55       252.848       273.777
         0.56       252.773       273.776
         0.57       252.695       273.776
         0.58       252.624       273.776
         0.59       252.548       273.776
          0.6       252.463       273.775
         0.61       252.395       273.775
         0.62       252.336       273.775
         0.63        252.26       273.775
         0.64        252.21       273.775
         0.65       252.143       273.775
         0.66       252.087       273.775
         0.67       252.008       273.776
         0.68       251.971       273.776
         0.69       251.897       273.776
          0.7       251.852       273.776
         0.71       251.805       273.776
         0.72       251.741       273.776
         0.73       251.687       273.776
         0.74       251.637       273.776
         0.75       251.588       273.776
         0.76       251.542       273.776
         0.77       251.491       273.777
         0.78       251.447       273.777
         0.79         251.4       273.777
          0.8       251.342       273.777
         0.81       251.302       273.777
         0.82       251.267       273.777
         0.83       251.217       273.777
         0.84       251.181       273.778
         0.85       251.134       273.778
         0.86         251.1       273.778
         0.87        251.06       273.778
         0.88       251.024       273.778
         0.89       250.987       273.778
          0.9       250.955       273.778
         0.91       250.922       273.778
         0.92       250.883       273.779
         0.93       250.843       273.779
         0.94       250.807       273.779
         0.95       250.781       273.779
         0.96       250.745       273.779
         0.97       250.714       273.779
         0.98       250.676       273.779
         0.99       250.642       273.779
            1       250.612       273.779
         1.01       250.587       273.779
         1.02       250.567       273.779
         1.03        250.53        273.78
         1.04       250.501        273.78
         1.05       250.477        273.78
         1.06       250.451        273.78
         1.07       250.414        273.78
         1.08       250.391        273.78
         1.09       250.372        273.78
          1.1       250.348        273.78
         1.11       250.314        273.78
         1.12       250.293        273.78
         1.13       250.269        273.78
         1.14       250.249        273.78
         1.15       250.219        273.78
         1.16       250.193        273.78
         1.17       250.169       273.779
         1.18       250.144       273.779
         1.19       250.134       273.779
          1.2        250.11       273.779
         1.21       250.092       273.778
         1.22        250.07       273.778
         1.23       250.052       273.777
         1.24       250.031       273.777
         1.25        250.01       273.776
         1.26       249.992       273.776
         1.27       249.962       273.775
         1.28       249.952       273.774
         1.29       249.926       273.774
          1.3       249.906       273.773
         1.31        249.89       273.772
         1.32       249.873       273.771
         1.33       249.858        273.77
         1.34       249.841        273.77
         1.35       249.824       273.769
         1.36       249.807       273.768
         1.37        249.78       273.767
         1.38       249.761       273.766
         1.39       249.754       273.765
          1.4       249.737       273.765
         1.41       249.725       273.764
         1.42        249.71       273.764
         1.43       249.693       273.763
         1.44       249.683       273.763
         1.45       249.668       273.763
         1.46       249.652       273.763
         1.47       249.631       273.763
         1.48       249.625       273.763
         1.49       249.607       273.763
          1.5        249.59       273.763
         1.51       249.577       273.763
         1.52       249.568       273.763
         1.53       249.554       273.763
         1.54       249.537       273.763
         1.55       249.529       273.763
         1.56       249.513       273.763
         1.57       249.505       273.763
         1.58       249.491       273.763
         1.59       249.483       273.763
          1.6       249.466       273.764
         1.61       249.451       273.764
         1.62       249.443       273.764
         1.63       249.435       273.764
         1.64       249.422       273.764
         1.65        249.41       273.764
         1.66        249.39       273.764
         1.67       249.388       273.764
         1.68       249.368       273.765
         1.69       249.367       273.765
          1.7        249.36       273.765
         1.71       249.348       273.765
         1.72       249.329       273.765
         1.73       249.325       273.765
         1.74       249.307       273.765
         1.75       249.308       273.765
         1.76       249.295       273.765
         1.77       249.287       273.765
         1.78       249.269       273.765
         1.79        249.27       273.765
          1.8       249.259       273.765
         1.81       249.248       273.765
         1.82        249.24       273.764
         1.83       249.231       273.763
         1.84       249.224       273.763
         1.85       249.215       273.762
         1.86       249.202       273.761
         1.87        249.19        273.76
         1.88        249.18       273.758
         1.89       249.182       273.757
          1.9       249.173       273.756
         1.91       249.158       273.754
         1.92       249.148       273.752
         1.93       249.141        273.75
         1.94        249.14       273.748
         1.95       249.132       273.745
         1.96       249.116       273.742
         1.97       249.114       273.739
         1.98       249.108       273.735
         1.99       249.093       273.731
            2        249.09       273.727
         2.01       249.082       273.722
         2.02       249.069       273.717
         2.03        249.07       273.711
         2.04        249.06       273.704
         2.05        249.05       273.697
         2.06       249.043       273.689
         2.07       249.039        273.68
         2.08       249.033        273.67
         2.09        249.02        273.66
          2.1        249.02       273.648
         2.11       249.003       273.635
         2.12       249.004        273.62
         2.13       248.993       273.604
         2.14        248.99       273.587
         2.15       248.984       273.568
         2.16       248.979       273.546
         2.17       248.969       273.524
         2.18       248.966       273.499
         2.19       248.956       273.471
          2.2       248.948       273.441
         2.21       248.944       273.408
         2.22       248.933       273.373
         2.23       248.931       273.334
         2.24       248.924       273.292
         2.25       248.914       273.247
         2.26       248.915       273.199
         2.27       248.911       273.146
         2.28       248.901        273.09
         2.29       248.897       273.031
          2.3       248.888       272.967
         2.31       248.885       272.898
         2.32       248.883       272.828
         2.33       248.872       272.752
         2.34       248.869        272.67
         2.35       248.864        272.59
         2.36       248.856       272.504
         2.37       248.849       272.415
         2.38       248.849       272.321
         2.39       248.845       272.226
          2.4       248.841       272.125
         2.41       248.833       272.025
         2.42        248.83       271.924
         2.43        248.82        271.82
         2.44       248.816       271.711
         2.45        248.81       271.606
         2.46       248.807       271.497
         2.47       248.803       271.386
         2.48       248.793        271.27
         2.49       248.793       271.165
          2.5       248.785       271.054
         2.51       248.777       270.944
         2.52       248.777       270.834
         2.53       248.774       270.725
         2.54       248.765       270.615
         2.55       248.761       270.507
         2.56       248.757       270.397
         2.57       248.753       270.285
         2.58       248.748       270.181
         2.59       248.738       270.077
          2.6       248.739       269.969
         2.61       248.735       269.861
         2.62       248.724       269.763
         2.63       248.724       269.661
         2.64       248.717       269.558
         2.65       248.713       269.454
         2.66       248.702       269.354
         2.67       248.704       269.261
         2.68       248.701       269.162
         2.69       248.697       269.066
          2.7       248.683       268.967
         2.71       248.687       268.874
         2.72       248.681        268.78
         2.73       248.674       268.687
         2.74        248.67       268.594
         2.75       248.665       268.497
         2.76       248.666        268.41
         2.77       248.662       268.323
         2.78       248.651       268.233
         2.79       248.653       268.144
          2.8       248.648       268.054
         2.81       248.643       267.968
         2.82       248.639       267.886
         2.83       248.637       267.798
         2.84       248.632       267.714
         2.85       248.629       267.631
         2.86        248.62        267.55
         2.87        248.62       267.468
         2.88       248.622       267.383
         2.89       248.617       267.305
          2.9       248.615       267.224
         2.91       248.604       267.143
         2.92        248.61       267.067
         2.93       248.606       266.989
         2.94       248.603        266.91
         2.95       248.599       266.834
         2.96       248.593       266.756
         2.97       248.594       266.679
         2.98       248.586       266.602
         2.99       248.583       266.531
            3       248.582       266.455
         3.01       248.579       266.381
         3.02        248.58       266.307
         3.03       248.574       266.237
         3.04       248.567       266.165
         3.05       248.569       266.093
         3.06       248.566        266.02
         3.07       248.565       265.952
         3.08       248.557       265.882
         3.09       248.554       265.809
          3.1       248.559       265.742
         3.11       248.551       265.672
         3.12       248.551       265.609
         3.13       248.549       265.541
         3.14       248.545       265.474
         3.15       248.543       265.409
         3.16       248.541       265.344
         3.17       248.538        265.28
         3.18       248.534       265.214
         3.19       248.528       265.154
          3.2       248.528        265.09
         3.21       248.528       265.031
         3.22       248.524       264.969
         3.23       248.518       264.908
         3.24       248.522       264.845
         3.25       248.517       264.787
         3.26       248.513       264.726
         3.27       248.513       264.666
         3.28       248.511       264.608
         3.29       248.509       264.552
          3.3       248.506       264.493
