# Probe 0 (249.6 0 0)
# Probe 1 (116.5 0 0)
#       Probe             0             1
#        Time
            0             (0 0 0)             (0 0 0)
         0.01             (0.40655 0 0)             (-0.405407 0 0)
         0.02             (0.538849 0 0)             (-0.798279 0 0)
         0.03             (0.547901 0 0)             (-0.525636 0 0)
         0.04             (1.23244 0 0)             (0.144595 0 0)
         0.05             (1.28461 0 0)             (0.42435 0 0)
         0.06             (1.44007 0 0)             (0.40994 0 0)
         0.07             (1.87994 0 0)             (0.174163 0 0)
         0.08             (2.58278 0 0)             (-0.0600727 0 0)
         0.09             (3.86263 0 0)             (-0.0939558 0 0)
          0.1             (6.08023 0 0)             (-0.0763472 0 0)
         0.11             (9.68433 0 0)             (-0.0676369 0 0)
         0.12             (14.559 0 0)             (-0.0678763 0 0)
         0.13             (19.9871 0 0)             (-0.0520879 0 0)
         0.14             (25.3459 0 0)             (-0.0224325 0 0)
         0.15             (30.0737 0 0)             (0.00293672 0 0)
         0.16             (33.9372 0 0)             (0.00759218 0 0)
         0.17             (37.2437 0 0)             (0.00406694 0 0)
         0.18             (40.182 0 0)             (0.00953108 0 0)
         0.19             (42.7887 0 0)             (0.0210487 0 0)
          0.2             (45.0996 0 0)             (0.028901 0 0)
         0.21             (47.2104 0 0)             (0.03232 0 0)
         0.22             (49.1225 0 0)             (0.034446 0 0)
         0.23             (50.8564 0 0)             (0.0365125 0 0)
         0.24             (52.4196 0 0)             (0.0390323 0 0)
         0.25             (53.8744 0 0)             (0.0423471 0 0)
         0.26             (55.1772 0 0)             (0.0447116 0 0)
         0.27             (56.3874 0 0)             (0.0456691 0 0)
         0.28             (57.5387 0 0)             (0.0465071 0 0)
         0.29             (58.5827 0 0)             (0.0470708 0 0)
          0.3             (59.5652 0 0)             (0.0459537 0 0)
         0.31             (60.4898 0 0)             (0.0439908 0 0)
         0.32             (61.3473 0 0)             (0.0416074 0 0)
         0.33             (62.1486 0 0)             (0.0380078 0 0)
         0.34             (62.8873 0 0)             (0.0359274 0 0)
         0.35             (63.6049 0 0)             (0.0365036 0 0)
         0.36             (64.276 0 0)             (0.037661 0 0)
         0.37             (64.9046 0 0)             (0.0374467 0 0)
         0.38             (65.5115 0 0)             (0.0356229 0 0)
         0.39             (66.0852 0 0)             (0.0329784 0 0)
          0.4             (66.6379 0 0)             (0.0306106 0 0)
         0.41             (67.1777 0 0)             (0.0289373 0 0)
         0.42             (67.6714 0 0)             (0.0278183 0 0)
         0.43             (68.1557 0 0)             (0.0269199 0 0)
         0.44             (68.6165 0 0)             (0.0258741 0 0)
         0.45             (69.0487 0 0)             (0.0243564 0 0)
         0.46             (69.4414 0 0)             (0.0224517 0 0)
         0.47             (69.8384 0 0)             (0.0204172 0 0)
         0.48             (70.2085 0 0)             (0.0185273 0 0)
         0.49             (70.5856 0 0)             (0.0167977 0 0)
          0.5             (70.9561 0 0)             (0.0150965 0 0)
         0.51             (71.3148 0 0)             (0.0131434 0 0)
         0.52             (71.6616 0 0)             (0.0108464 0 0)
         0.53             (71.9913 0 0)             (0.00828279 0 0)
         0.54             (72.307 0 0)             (0.00544749 0 0)
         0.55             (72.6248 0 0)             (0.00289488 0 0)
         0.56             (72.9327 0 0)             (0.00123239 0 0)
         0.57             (73.2344 0 0)             (-1.81134e-05 0 0)
         0.58             (73.5161 0 0)             (-0.00136783 0 0)
         0.59             (73.7975 0 0)             (-0.00287946 0 0)
          0.6             (74.0717 0 0)             (-0.00430271 0 0)
         0.61             (74.3406 0 0)             (-0.00531361 0 0)
         0.62             (74.5931 0 0)             (-0.00577585 0 0)
         0.63             (74.8569 0 0)             (-0.00578456 0 0)
         0.64             (75.0985 0 0)             (-0.00525312 0 0)
         0.65             (75.3402 0 0)             (-0.00402504 0 0)
         0.66             (75.5736 0 0)             (-0.00261568 0 0)
         0.67             (75.7997 0 0)             (-0.00144458 0 0)
         0.68             (76.0281 0 0)             (-0.000564912 0 0)
         0.69             (76.2445 0 0)             (2.73604e-05 0 0)
          0.7             (76.4654 0 0)             (0.000605939 0 0)
         0.71             (76.6778 0 0)             (0.00171281 0 0)
         0.72             (76.8762 0 0)             (0.00291867 0 0)
         0.73             (77.0764 0 0)             (0.0035499 0 0)
         0.74             (77.2761 0 0)             (0.00384004 0 0)
         0.75             (77.4671 0 0)             (0.00444143 0 0)
         0.76             (77.647 0 0)             (0.00541739 0 0)
         0.77             (77.8286 0 0)             (0.00629596 0 0)
         0.78             (78.0153 0 0)             (0.00682798 0 0)
         0.79             (78.1901 0 0)             (0.00720891 0 0)
          0.8             (78.3632 0 0)             (0.00769599 0 0)
         0.81             (78.5376 0 0)             (0.00829803 0 0)
         0.82             (78.6997 0 0)             (0.00884924 0 0)
         0.83             (78.8659 0 0)             (0.00923881 0 0)
         0.84             (79.021 0 0)             (0.00949347 0 0)
         0.85             (79.1783 0 0)             (0.00970558 0 0)
         0.86             (79.3388 0 0)             (0.00994298 0 0)
         0.87             (79.4917 0 0)             (0.0102091 0 0)
         0.88             (79.6368 0 0)             (0.0104653 0 0)
         0.89             (79.784 0 0)             (0.0106778 0 0)
          0.9             (79.9366 0 0)             (0.0108454 0 0)
         0.91             (80.0717 0 0)             (0.0109903 0 0)
         0.92             (80.2071 0 0)             (0.0111314 0 0)
         0.93             (80.3405 0 0)             (0.0112694 0 0)
         0.94             (80.4767 0 0)             (0.0113935 0 0)
         0.95             (80.6091 0 0)             (0.0114937 0 0)
         0.96             (80.7381 0 0)             (0.0115624 0 0)
         0.97             (80.8635 0 0)             (0.0115898 0 0)
         0.98             (80.9838 0 0)             (0.0115723 0 0)
         0.99             (81.1029 0 0)             (0.0115216 0 0)
            1             (81.2233 0 0)             (0.0114558 0 0)
         1.01             (81.3398 0 0)             (0.0113815 0 0)
         1.02             (81.4554 0 0)             (0.0112988 0 0)
         1.03             (81.5671 0 0)             (0.0112231 0 0)
         1.04             (81.6742 0 0)             (0.0111949 0 0)
         1.05             (81.7791 0 0)             (0.0112993 0 0)
         1.06             (81.8812 0 0)             (0.0114795 0 0)
         1.07             (81.9856 0 0)             (0.0116105 0 0)
         1.08             (82.0991 0 0)             (0.011619 0 0)
         1.09             (82.195 0 0)             (0.0114832 0 0)
          1.1             (82.2933 0 0)             (0.0112226 0 0)
         1.11             (82.3896 0 0)             (0.0108444 0 0)
         1.12             (82.4877 0 0)             (0.0103048 0 0)
         1.13             (82.5854 0 0)             (0.00946943 0 0)
         1.14             (82.6754 0 0)             (0.00846222 0 0)
         1.15             (82.7692 0 0)             (0.00742365 0 0)
         1.16             (82.8584 0 0)             (0.00641721 0 0)
         1.17             (82.9428 0 0)             (0.00543079 0 0)
         1.18             (83.031 0 0)             (0.00441154 0 0)
         1.19             (83.1163 0 0)             (0.00326754 0 0)
          1.2             (83.1984 0 0)             (0.00195608 0 0)
         1.21             (83.2823 0 0)             (0.00041977 0 0)
         1.22             (83.3632 0 0)             (-0.0013162 0 0)
         1.23             (83.4398 0 0)             (-0.0032197 0 0)
         1.24             (83.5209 0 0)             (-0.0052427 0 0)
         1.25             (83.5974 0 0)             (-0.00740054 0 0)
         1.26             (83.6722 0 0)             (-0.00965398 0 0)
         1.27             (83.745 0 0)             (-0.0120087 0 0)
         1.28             (83.817 0 0)             (-0.0145088 0 0)
         1.29             (83.8888 0 0)             (-0.0170936 0 0)
          1.3             (83.9619 0 0)             (-0.0197988 0 0)
         1.31             (84.0311 0 0)             (-0.0225394 0 0)
         1.32             (84.1013 0 0)             (-0.0253443 0 0)
         1.33             (84.1668 0 0)             (-0.0281601 0 0)
         1.34             (84.2314 0 0)             (-0.0309494 0 0)
         1.35             (84.301 0 0)             (-0.0336997 0 0)
         1.36             (84.3692 0 0)             (-0.0363455 0 0)
         1.37             (84.4336 0 0)             (-0.0387873 0 0)
         1.38             (84.5017 0 0)             (-0.0410157 0 0)
         1.39             (84.5678 0 0)             (-0.0429325 0 0)
          1.4             (84.6339 0 0)             (-0.0444692 0 0)
         1.41             (84.6936 0 0)             (-0.0455517 0 0)
         1.42             (84.7558 0 0)             (-0.0460831 0 0)
         1.43             (84.8172 0 0)             (-0.0460539 0 0)
         1.44             (84.8782 0 0)             (-0.0453977 0 0)
         1.45             (84.9348 0 0)             (-0.0439932 0 0)
         1.46             (84.9936 0 0)             (-0.0420182 0 0)
         1.47             (85.0517 0 0)             (-0.039858 0 0)
         1.48             (85.1026 0 0)             (-0.0376904 0 0)
         1.49             (85.1601 0 0)             (-0.0355653 0 0)
          1.5             (85.2101 0 0)             (-0.033731 0 0)
         1.51             (85.2647 0 0)             (-0.0320392 0 0)
         1.52             (85.3129 0 0)             (-0.0302279 0 0)
         1.53             (85.3731 0 0)             (-0.0283041 0 0)
         1.54             (85.4208 0 0)             (-0.0263404 0 0)
         1.55             (85.4726 0 0)             (-0.0243586 0 0)
         1.56             (85.5199 0 0)             (-0.022344 0 0)
         1.57             (85.5692 0 0)             (-0.0202826 0 0)
         1.58             (85.6163 0 0)             (-0.0181665 0 0)
         1.59             (85.6648 0 0)             (-0.0159842 0 0)
          1.6             (85.7107 0 0)             (-0.0137251 0 0)
         1.61             (85.7603 0 0)             (-0.0113861 0 0)
         1.62             (85.8102 0 0)             (-0.00897245 0 0)
         1.63             (85.8547 0 0)             (-0.00648751 0 0)
         1.64             (85.8976 0 0)             (-0.00393107 0 0)
         1.65             (85.9442 0 0)             (-0.00129565 0 0)
         1.66             (85.9854 0 0)             (0.00141067 0 0)
         1.67             (86.0304 0 0)             (0.00419005 0 0)
         1.68             (86.0713 0 0)             (0.00706672 0 0)
         1.69             (86.1126 0 0)             (0.0100338 0 0)
          1.7             (86.1557 0 0)             (0.0130802 0 0)
         1.71             (86.1992 0 0)             (0.0161768 0 0)
         1.72             (86.2381 0 0)             (0.0193478 0 0)
         1.73             (86.2782 0 0)             (0.0226302 0 0)
         1.74             (86.3182 0 0)             (0.0260481 0 0)
         1.75             (86.358 0 0)             (0.0295903 0 0)
         1.76             (86.3968 0 0)             (0.0328905 0 0)
         1.77             (86.4358 0 0)             (0.0361282 0 0)
         1.78             (86.4734 0 0)             (0.0395918 0 0)
         1.79             (86.5082 0 0)             (0.043357 0 0)
          1.8             (86.5469 0 0)             (0.0474644 0 0)
         1.81             (86.581 0 0)             (0.0519227 0 0)
         1.82             (86.6202 0 0)             (0.0568059 0 0)
         1.83             (86.6585 0 0)             (0.0625054 0 0)
         1.84             (86.6917 0 0)             (0.0686149 0 0)
         1.85             (86.729 0 0)             (0.0749113 0 0)
         1.86             (86.7587 0 0)             (0.0813977 0 0)
         1.87             (86.7949 0 0)             (0.088116 0 0)
         1.88             (86.826 0 0)             (0.0952282 0 0)
         1.89             (86.8618 0 0)             (0.102852 0 0)
          1.9             (86.8961 0 0)             (0.111046 0 0)
         1.91             (86.9268 0 0)             (0.119894 0 0)
         1.92             (86.9568 0 0)             (0.129458 0 0)
         1.93             (86.991 0 0)             (0.139815 0 0)
         1.94             (87.0229 0 0)             (0.150922 0 0)
         1.95             (87.052 0 0)             (0.162923 0 0)
         1.96             (87.0821 0 0)             (0.17596 0 0)
         1.97             (87.1141 0 0)             (0.18994 0 0)
         1.98             (87.1413 0 0)             (0.205198 0 0)
         1.99             (87.1731 0 0)             (0.221742 0 0)
            2             (87.2013 0 0)             (0.239645 0 0)
         2.01             (87.2296 0 0)             (0.259026 0 0)
         2.02             (87.2558 0 0)             (0.280211 0 0)
         2.03             (87.2849 0 0)             (0.303539 0 0)
         2.04             (87.3124 0 0)             (0.328565 0 0)
         2.05             (87.3423 0 0)             (0.355984 0 0)
         2.06             (87.3681 0 0)             (0.385792 0 0)
         2.07             (87.3936 0 0)             (0.418613 0 0)
         2.08             (87.4205 0 0)             (0.45424 0 0)
         2.09             (87.4479 0 0)             (0.493474 0 0)
          2.1             (87.475 0 0)             (0.535766 0 0)
         2.11             (87.5003 0 0)             (0.582221 0 0)
         2.12             (87.5258 0 0)             (0.632893 0 0)
         2.13             (87.5546 0 0)             (0.688382 0 0)
         2.14             (87.5782 0 0)             (0.748873 0 0)
         2.15             (87.6042 0 0)             (0.814355 0 0)
         2.16             (87.629 0 0)             (0.885401 0 0)
         2.17             (87.6544 0 0)             (0.963131 0 0)
         2.18             (87.6774 0 0)             (1.04787 0 0)
         2.19             (87.704 0 0)             (1.13976 0 0)
          2.2             (87.7295 0 0)             (1.23862 0 0)
         2.21             (87.7515 0 0)             (1.347 0 0)
         2.22             (87.7766 0 0)             (1.46375 0 0)
         2.23             (87.8 0 0)             (1.58958 0 0)
         2.24             (87.824 0 0)             (1.72652 0 0)
         2.25             (87.8489 0 0)             (1.87267 0 0)
         2.26             (87.8719 0 0)             (2.02909 0 0)
         2.27             (87.8932 0 0)             (2.19733 0 0)
         2.28             (87.9168 0 0)             (2.3781 0 0)
         2.29             (87.9381 0 0)             (2.56935 0 0)
          2.3             (87.9594 0 0)             (2.77167 0 0)
         2.31             (87.9843 0 0)             (2.98537 0 0)
         2.32             (88.0041 0 0)             (3.21116 0 0)
         2.33             (88.0275 0 0)             (3.44887 0 0)
         2.34             (88.0494 0 0)             (3.6995 0 0)
         2.35             (88.0705 0 0)             (3.96066 0 0)
         2.36             (88.0929 0 0)             (4.23035 0 0)
         2.37             (88.1131 0 0)             (4.51287 0 0)
         2.38             (88.1325 0 0)             (4.80456 0 0)
         2.39             (88.1538 0 0)             (5.10665 0 0)
          2.4             (88.1741 0 0)             (5.41606 0 0)
         2.41             (88.1953 0 0)             (5.73347 0 0)
         2.42             (88.2148 0 0)             (6.05692 0 0)
         2.43             (88.2337 0 0)             (6.38704 0 0)
         2.44             (88.2546 0 0)             (6.72138 0 0)
         2.45             (88.2737 0 0)             (7.05981 0 0)
         2.46             (88.2903 0 0)             (7.40274 0 0)
         2.47             (88.3112 0 0)             (7.74717 0 0)
         2.48             (88.3268 0 0)             (8.09432 0 0)
         2.49             (88.3483 0 0)             (8.44227 0 0)
          2.5             (88.3668 0 0)             (8.79166 0 0)
         2.51             (88.3838 0 0)             (9.14099 0 0)
         2.52             (88.4025 0 0)             (9.49141 0 0)
         2.53             (88.4205 0 0)             (9.83925 0 0)
         2.54             (88.4376 0 0)             (10.1868 0 0)
         2.55             (88.4522 0 0)             (10.5333 0 0)
         2.56             (88.4712 0 0)             (10.8778 0 0)
         2.57             (88.4851 0 0)             (11.2203 0 0)
         2.58             (88.5032 0 0)             (11.5611 0 0)
         2.59             (88.5174 0 0)             (11.8999 0 0)
          2.6             (88.5338 0 0)             (12.2349 0 0)
         2.61             (88.5498 0 0)             (12.5686 0 0)
         2.62             (88.565 0 0)             (12.9001 0 0)
         2.63             (88.5817 0 0)             (13.2278 0 0)
         2.64             (88.5963 0 0)             (13.5542 0 0)
         2.65             (88.6105 0 0)             (13.8795 0 0)
         2.66             (88.6252 0 0)             (14.2013 0 0)
         2.67             (88.6399 0 0)             (14.5209 0 0)
         2.68             (88.6538 0 0)             (14.8356 0 0)
         2.69             (88.6687 0 0)             (15.1483 0 0)
          2.7             (88.6836 0 0)             (15.4578 0 0)
         2.71             (88.7009 0 0)             (15.7646 0 0)
         2.72             (88.7122 0 0)             (16.0689 0 0)
         2.73             (88.728 0 0)             (16.3716 0 0)
         2.74             (88.7409 0 0)             (16.6719 0 0)
         2.75             (88.7569 0 0)             (16.97 0 0)
         2.76             (88.7714 0 0)             (17.2657 0 0)
         2.77             (88.7875 0 0)             (17.5595 0 0)
         2.78             (88.8036 0 0)             (17.8502 0 0)
         2.79             (88.8174 0 0)             (18.1385 0 0)
          2.8             (88.8345 0 0)             (18.4237 0 0)
         2.81             (88.8505 0 0)             (18.707 0 0)
         2.82             (88.864 0 0)             (18.9872 0 0)
         2.83             (88.881 0 0)             (19.2656 0 0)
         2.84             (88.8974 0 0)             (19.5417 0 0)
         2.85             (88.9139 0 0)             (19.8163 0 0)
         2.86             (88.9276 0 0)             (20.0891 0 0)
         2.87             (88.9436 0 0)             (20.3599 0 0)
         2.88             (88.9587 0 0)             (20.629 0 0)
         2.89             (88.9768 0 0)             (20.8958 0 0)
          2.9             (88.9916 0 0)             (21.1598 0 0)
         2.91             (89.0062 0 0)             (21.4227 0 0)
         2.92             (89.0198 0 0)             (21.6825 0 0)
         2.93             (89.0345 0 0)             (21.9415 0 0)
         2.94             (89.0534 0 0)             (22.1987 0 0)
         2.95             (89.0643 0 0)             (22.4543 0 0)
         2.96             (89.0808 0 0)             (22.709 0 0)
         2.97             (89.0932 0 0)             (22.9616 0 0)
         2.98             (89.1067 0 0)             (23.2124 0 0)
         2.99             (89.1253 0 0)             (23.4605 0 0)
            3             (89.1391 0 0)             (23.7077 0 0)
         3.01             (89.1527 0 0)             (23.9539 0 0)
         3.02             (89.1687 0 0)             (24.198 0 0)
         3.03             (89.1827 0 0)             (24.4403 0 0)
         3.04             (89.1959 0 0)             (24.6813 0 0)
         3.05             (89.2097 0 0)             (24.9209 0 0)
         3.06             (89.2248 0 0)             (25.1595 0 0)
         3.07             (89.2397 0 0)             (25.3954 0 0)
         3.08             (89.2516 0 0)             (25.6292 0 0)
         3.09             (89.2657 0 0)             (25.8602 0 0)
          3.1             (89.2772 0 0)             (26.0892 0 0)
         3.11             (89.2917 0 0)             (26.3173 0 0)
         3.12             (89.308 0 0)             (26.5437 0 0)
         3.13             (89.3194 0 0)             (26.7678 0 0)
         3.14             (89.3325 0 0)             (26.9905 0 0)
         3.15             (89.3467 0 0)             (27.2118 0 0)
         3.16             (89.3582 0 0)             (27.4302 0 0)
         3.17             (89.3708 0 0)             (27.6467 0 0)
         3.18             (89.3857 0 0)             (27.8609 0 0)
         3.19             (89.3991 0 0)             (28.0735 0 0)
          3.2             (89.4116 0 0)             (28.2839 0 0)
         3.21             (89.4217 0 0)             (28.4942 0 0)
         3.22             (89.4352 0 0)             (28.7024 0 0)
         3.23             (89.4487 0 0)             (28.9085 0 0)
         3.24             (89.4605 0 0)             (29.1134 0 0)
         3.25             (89.4729 0 0)             (29.3165 0 0)
         3.26             (89.483 0 0)             (29.5179 0 0)
         3.27             (89.4974 0 0)             (29.719 0 0)
         3.28             (89.5076 0 0)             (29.9183 0 0)
         3.29             (89.5197 0 0)             (30.1155 0 0)
          3.3             (89.5319 0 0)             (30.311 0 0)
