# Probe 0 (249.6 0 0)
# Probe 1 (116.5 0 0)
#       Probe             0             1
#        Time
            0             (0 0 0)             (0 0 0)
         0.01             (0.0920545 0 0)             (-0.120436 0 0)
         0.02             (0.16572 0 0)             (-0.423482 0 0)
         0.03             (0.347681 0 0)             (-0.50429 0 0)
         0.04             (0.738973 0 0)             (-0.286953 0 0)
         0.05             (1.02449 0 0)             (0.0113777 0 0)
         0.06             (1.16795 0 0)             (0.172004 0 0)
         0.07             (1.46279 0 0)             (0.181231 0 0)
         0.08             (2.00236 0 0)             (0.118946 0 0)
         0.09             (3.05343 0 0)             (0.0593193 0 0)
          0.1             (5.07038 0 0)             (0.026531 0 0)
         0.11             (8.50321 0 0)             (0.00773701 0 0)
         0.12             (13.3031 0 0)             (-0.00634916 0 0)
         0.13             (18.7154 0 0)             (-0.013677 0 0)
         0.14             (24.1218 0 0)             (-0.0133954 0 0)
         0.15             (28.8759 0 0)             (-0.00990333 0 0)
         0.16             (32.7576 0 0)             (-0.00741144 0 0)
         0.17             (36.0921 0 0)             (-0.00634361 0 0)
         0.18             (39.0334 0 0)             (-0.00434576 0 0)
         0.19             (41.6527 0 0)             (-0.000582358 0 0)
          0.2             (43.9799 0 0)             (0.00380976 0 0)
         0.21             (46.1017 0 0)             (0.00790573 0 0)
         0.22             (48.0285 0 0)             (0.0116081 0 0)
         0.23             (49.7787 0 0)             (0.0150498 0 0)
         0.24             (51.365 0 0)             (0.018336 0 0)
         0.25             (52.8298 0 0)             (0.0216783 0 0)
         0.26             (54.158 0 0)             (0.0248585 0 0)
         0.27             (55.3717 0 0)             (0.0276251 0 0)
         0.28             (56.5477 0 0)             (0.0300655 0 0)
         0.29             (57.6022 0 0)             (0.0322216 0 0)
          0.3             (58.6047 0 0)             (0.0338284 0 0)
         0.31             (59.5394 0 0)             (0.0348673 0 0)
         0.32             (60.4142 0 0)             (0.0354453 0 0)
         0.33             (61.2238 0 0)             (0.0354609 0 0)
         0.34             (61.9811 0 0)             (0.0353297 0 0)
         0.35             (62.7076 0 0)             (0.0354591 0 0)
         0.36             (63.3905 0 0)             (0.0357395 0 0)
         0.37             (64.0294 0 0)             (0.0358861 0 0)
         0.38             (64.6554 0 0)             (0.0357354 0 0)
         0.39             (65.2352 0 0)             (0.0353014 0 0)
          0.4             (65.7931 0 0)             (0.0346886 0 0)
         0.41             (66.3473 0 0)             (0.0340015 0 0)
         0.42             (66.8547 0 0)             (0.0333006 0 0)
         0.43             (67.3475 0 0)             (0.0325914 0 0)
         0.44             (67.814 0 0)             (0.0318378 0 0)
         0.45             (68.2506 0 0)             (0.030967 0 0)
         0.46             (68.6581 0 0)             (0.0299463 0 0)
         0.47             (69.0582 0 0)             (0.0287874 0 0)
         0.48             (69.4351 0 0)             (0.0275392 0 0)
         0.49             (69.8154 0 0)             (0.0262353 0 0)
          0.5             (70.1932 0 0)             (0.0248811 0 0)
         0.51             (70.554 0 0)             (0.0234351 0 0)
         0.52             (70.9055 0 0)             (0.021856 0 0)
         0.53             (71.2473 0 0)             (0.0201241 0 0)
         0.54             (71.5669 0 0)             (0.0182222 0 0)
         0.55             (71.887 0 0)             (0.0162247 0 0)
         0.56             (72.1998 0 0)             (0.0143148 0 0)
         0.57             (72.5013 0 0)             (0.0125265 0 0)
         0.58             (72.7899 0 0)             (0.0108036 0 0)
         0.59             (73.075 0 0)             (0.00910282 0 0)
          0.6             (73.3543 0 0)             (0.00744254 0 0)
         0.61             (73.6259 0 0)             (0.00589063 0 0)
         0.62             (73.8842 0 0)             (0.00451702 0 0)
         0.63             (74.1441 0 0)             (0.00335402 0 0)
         0.64             (74.3935 0 0)             (0.00243927 0 0)
         0.65             (74.6397 0 0)             (0.0018351 0 0)
         0.66             (74.872 0 0)             (0.0014866 0 0)
         0.67             (75.1034 0 0)             (0.00129373 0 0)
         0.68             (75.3343 0 0)             (0.00119262 0 0)
         0.69             (75.5533 0 0)             (0.00113866 0 0)
          0.7             (75.7728 0 0)             (0.00113747 0 0)
         0.71             (75.9891 0 0)             (0.00126782 0 0)
         0.72             (76.1934 0 0)             (0.00150245 0 0)
         0.73             (76.3955 0 0)             (0.00173487 0 0)
         0.74             (76.5948 0 0)             (0.00194478 0 0)
         0.75             (76.7879 0 0)             (0.00221012 0 0)
         0.76             (76.9725 0 0)             (0.00257335 0 0)
         0.77             (77.1573 0 0)             (0.00298664 0 0)
         0.78             (77.3426 0 0)             (0.00339016 0 0)
         0.79             (77.5195 0 0)             (0.00377912 0 0)
          0.8             (77.6997 0 0)             (0.00418373 0 0)
         0.81             (77.8724 0 0)             (0.00461734 0 0)
         0.82             (78.0394 0 0)             (0.00506157 0 0)
         0.83             (78.2069 0 0)             (0.00548998 0 0)
         0.84             (78.364 0 0)             (0.00589048 0 0)
         0.85             (78.5219 0 0)             (0.00626725 0 0)
         0.86             (78.6811 0 0)             (0.00663037 0 0)
         0.87             (78.8369 0 0)             (0.00698509 0 0)
         0.88             (78.9869 0 0)             (0.00732908 0 0)
         0.89             (79.1361 0 0)             (0.0076566 0 0)
          0.9             (79.2869 0 0)             (0.00796445 0 0)
         0.91             (79.4274 0 0)             (0.0082538 0 0)
         0.92             (79.5652 0 0)             (0.00852763 0 0)
         0.93             (79.7024 0 0)             (0.00878752 0 0)
         0.94             (79.8403 0 0)             (0.0090329 0 0)
         0.95             (79.9748 0 0)             (0.00926226 0 0)
         0.96             (80.1029 0 0)             (0.0094737 0 0)
         0.97             (80.2311 0 0)             (0.00966442 0 0)
         0.98             (80.3535 0 0)             (0.00983194 0 0)
         0.99             (80.474 0 0)             (0.00997628 0 0)
            1             (80.5976 0 0)             (0.0100998 0 0)
         1.01             (80.7171 0 0)             (0.0102043 0 0)
         1.02             (80.8329 0 0)             (0.0102913 0 0)
         1.03             (80.9475 0 0)             (0.010364 0 0)
         1.04             (81.058 0 0)             (0.0104309 0 0)
         1.05             (81.1641 0 0)             (0.0105103 0 0)
         1.06             (81.2718 0 0)             (0.0106049 0 0)
         1.07             (81.3772 0 0)             (0.0106998 0 0)
         1.08             (81.4843 0 0)             (0.0107786 0 0)
         1.09             (81.5863 0 0)             (0.0108281 0 0)
          1.1             (81.6881 0 0)             (0.0108414 0 0)
         1.11             (81.7874 0 0)             (0.0108135 0 0)
         1.12             (81.8856 0 0)             (0.010733 0 0)
         1.13             (81.9824 0 0)             (0.0105669 0 0)
         1.14             (82.0763 0 0)             (0.0103116 0 0)
         1.15             (82.1696 0 0)             (0.00997842 0 0)
         1.16             (82.2617 0 0)             (0.00957956 0 0)
         1.17             (82.3517 0 0)             (0.00912121 0 0)
         1.18             (82.4403 0 0)             (0.00860126 0 0)
         1.19             (82.5265 0 0)             (0.00800565 0 0)
          1.2             (82.6128 0 0)             (0.00732043 0 0)
         1.21             (82.6965 0 0)             (0.00652377 0 0)
         1.22             (82.7784 0 0)             (0.00560329 0 0)
         1.23             (82.859 0 0)             (0.00455387 0 0)
         1.24             (82.9387 0 0)             (0.00337399 0 0)
         1.25             (83.0183 0 0)             (0.0020601 0 0)
         1.26             (83.0954 0 0)             (0.00061642 0 0)
         1.27             (83.1705 0 0)             (-0.000956791 0 0)
         1.28             (83.2447 0 0)             (-0.00266501 0 0)
         1.29             (83.3171 0 0)             (-0.00450113 0 0)
          1.3             (83.3903 0 0)             (-0.00646894 0 0)
         1.31             (83.4629 0 0)             (-0.00855327 0 0)
         1.32             (83.5329 0 0)             (-0.0107481 0 0)
         1.33             (83.6015 0 0)             (-0.0130378 0 0)
         1.34             (83.6682 0 0)             (-0.015404 0 0)
         1.35             (83.7386 0 0)             (-0.0178291 0 0)
         1.36             (83.8082 0 0)             (-0.0202845 0 0)
         1.37             (83.8772 0 0)             (-0.0227308 0 0)
         1.38             (83.946 0 0)             (-0.0251364 0 0)
         1.39             (84.0141 0 0)             (-0.027454 0 0)
          1.4             (84.0792 0 0)             (-0.0296377 0 0)
         1.41             (84.1437 0 0)             (-0.031637 0 0)
         1.42             (84.2059 0 0)             (-0.0333967 0 0)
         1.43             (84.268 0 0)             (-0.0348734 0 0)
         1.44             (84.3311 0 0)             (-0.0360252 0 0)
         1.45             (84.3904 0 0)             (-0.0368041 0 0)
         1.46             (84.449 0 0)             (-0.0372087 0 0)
         1.47             (84.5065 0 0)             (-0.0373113 0 0)
         1.48             (84.5613 0 0)             (-0.037186 0 0)
         1.49             (84.619 0 0)             (-0.0368897 0 0)
          1.5             (84.6736 0 0)             (-0.0364736 0 0)
         1.51             (84.7277 0 0)             (-0.0359403 0 0)
         1.52             (84.781 0 0)             (-0.0352627 0 0)
         1.53             (84.8368 0 0)             (-0.0344359 0 0)
         1.54             (84.8881 0 0)             (-0.0334712 0 0)
         1.55             (84.9403 0 0)             (-0.0323801 0 0)
         1.56             (84.9902 0 0)             (-0.0311701 0 0)
         1.57             (85.0419 0 0)             (-0.0298468 0 0)
         1.58             (85.0915 0 0)             (-0.0284154 0 0)
         1.59             (85.1396 0 0)             (-0.026879 0 0)
          1.6             (85.1879 0 0)             (-0.0252394 0 0)
         1.61             (85.2367 0 0)             (-0.0234981 0 0)
         1.62             (85.2872 0 0)             (-0.0216578 0 0)
         1.63             (85.3341 0 0)             (-0.0197216 0 0)
         1.64             (85.3802 0 0)             (-0.0176919 0 0)
         1.65             (85.4266 0 0)             (-0.0155697 0 0)
         1.66             (85.4693 0 0)             (-0.0133571 0 0)
         1.67             (85.5146 0 0)             (-0.0110568 0 0)
         1.68             (85.5587 0 0)             (-0.00866499 0 0)
         1.69             (85.6014 0 0)             (-0.00618133 0 0)
          1.7             (85.6458 0 0)             (-0.0036071 0 0)
         1.71             (85.6886 0 0)             (-0.000949191 0 0)
         1.72             (85.7306 0 0)             (0.00179161 0 0)
         1.73             (85.7717 0 0)             (0.00462184 0 0)
         1.74             (85.8129 0 0)             (0.00755055 0 0)
         1.75             (85.8536 0 0)             (0.0105838 0 0)
         1.76             (85.8944 0 0)             (0.0136558 0 0)
         1.77             (85.9327 0 0)             (0.016748 0 0)
         1.78             (85.9715 0 0)             (0.0199052 0 0)
         1.79             (86.0091 0 0)             (0.0231717 0 0)
          1.8             (86.0478 0 0)             (0.0265885 0 0)
         1.81             (86.0849 0 0)             (0.0301924 0 0)
         1.82             (86.1234 0 0)             (0.0340219 0 0)
         1.83             (86.1617 0 0)             (0.0382052 0 0)
         1.84             (86.1968 0 0)             (0.0427493 0 0)
         1.85             (86.2338 0 0)             (0.0476235 0 0)
         1.86             (86.2674 0 0)             (0.0528074 0 0)
         1.87             (86.3025 0 0)             (0.0582927 0 0)
         1.88             (86.3378 0 0)             (0.0641051 0 0)
         1.89             (86.3734 0 0)             (0.0702909 0 0)
          1.9             (86.4067 0 0)             (0.0768918 0 0)
         1.91             (86.4405 0 0)             (0.0839705 0 0)
         1.92             (86.4725 0 0)             (0.0915892 0 0)
         1.93             (86.5069 0 0)             (0.099811 0 0)
         1.94             (86.5393 0 0)             (0.108693 0 0)
         1.95             (86.5706 0 0)             (0.118289 0 0)
         1.96             (86.6024 0 0)             (0.128698 0 0)
         1.97             (86.6341 0 0)             (0.139995 0 0)
         1.98             (86.6639 0 0)             (0.152272 0 0)
         1.99             (86.694 0 0)             (0.165636 0 0)
            2             (86.7242 0 0)             (0.180198 0 0)
         2.01             (86.7531 0 0)             (0.196048 0 0)
         2.02             (86.7817 0 0)             (0.213388 0 0)
         2.03             (86.8108 0 0)             (0.232444 0 0)
         2.04             (86.8387 0 0)             (0.253273 0 0)
         2.05             (86.869 0 0)             (0.276098 0 0)
         2.06             (86.898 0 0)             (0.301066 0 0)
         2.07             (86.9247 0 0)             (0.328595 0 0)
         2.08             (86.9522 0 0)             (0.358833 0 0)
         2.09             (86.98 0 0)             (0.392179 0 0)
          2.1             (87.0077 0 0)             (0.428746 0 0)
         2.11             (87.0342 0 0)             (0.468931 0 0)
         2.12             (87.0618 0 0)             (0.51314 0 0)
         2.13             (87.0895 0 0)             (0.561812 0 0)
         2.14             (87.1151 0 0)             (0.615322 0 0)
         2.15             (87.1413 0 0)             (0.67406 0 0)
         2.16             (87.1667 0 0)             (0.738323 0 0)
         2.17             (87.1929 0 0)             (0.808774 0 0)
         2.18             (87.2182 0 0)             (0.885897 0 0)
         2.19             (87.2442 0 0)             (0.970457 0 0)
          2.2             (87.2704 0 0)             (1.06259 0 0)
         2.21             (87.2942 0 0)             (1.16314 0 0)
         2.22             (87.3188 0 0)             (1.27236 0 0)
         2.23             (87.3439 0 0)             (1.39118 0 0)
         2.24             (87.3696 0 0)             (1.52081 0 0)
         2.25             (87.3952 0 0)             (1.66056 0 0)
         2.26             (87.4176 0 0)             (1.81096 0 0)
         2.27             (87.4396 0 0)             (1.97273 0 0)
         2.28             (87.4636 0 0)             (2.14703 0 0)
         2.29             (87.4869 0 0)             (2.33363 0 0)
          2.3             (87.5099 0 0)             (2.53159 0 0)
         2.31             (87.5335 0 0)             (2.74155 0 0)
         2.32             (87.5559 0 0)             (2.96392 0 0)
         2.33             (87.5782 0 0)             (3.19805 0 0)
         2.34             (87.6013 0 0)             (3.44493 0 0)
         2.35             (87.6237 0 0)             (3.70363 0 0)
         2.36             (87.6459 0 0)             (3.97293 0 0)
         2.37             (87.6676 0 0)             (4.25361 0 0)
         2.38             (87.6887 0 0)             (4.54466 0 0)
         2.39             (87.7108 0 0)             (4.84516 0 0)
          2.4             (87.7313 0 0)             (5.15439 0 0)
         2.41             (87.7519 0 0)             (5.47215 0 0)
         2.42             (87.773 0 0)             (5.7966 0 0)
         2.43             (87.7931 0 0)             (6.12716 0 0)
         2.44             (87.8144 0 0)             (6.46263 0 0)
         2.45             (87.8347 0 0)             (6.80303 0 0)
         2.46             (87.8532 0 0)             (7.14715 0 0)
         2.47             (87.8733 0 0)             (7.49398 0 0)
         2.48             (87.8916 0 0)             (7.84247 0 0)
         2.49             (87.9107 0 0)             (8.19263 0 0)
          2.5             (87.9302 0 0)             (8.54356 0 0)
         2.51             (87.9483 0 0)             (8.8953 0 0)
         2.52             (87.9673 0 0)             (9.24769 0 0)
         2.53             (87.986 0 0)             (9.59843 0 0)
         2.54             (88.0047 0 0)             (9.94816 0 0)
         2.55             (88.0202 0 0)             (10.2969 0 0)
         2.56             (88.0383 0 0)             (10.6437 0 0)
         2.57             (88.0546 0 0)             (10.9885 0 0)
         2.58             (88.0717 0 0)             (11.3319 0 0)
         2.59             (88.0874 0 0)             (11.6724 0 0)
          2.6             (88.1047 0 0)             (12.01 0 0)
         2.61             (88.1206 0 0)             (12.3455 0 0)
         2.62             (88.1367 0 0)             (12.6788 0 0)
         2.63             (88.152 0 0)             (13.0087 0 0)
         2.64             (88.1686 0 0)             (13.3371 0 0)
         2.65             (88.1839 0 0)             (13.6636 0 0)
         2.66             (88.2002 0 0)             (13.9875 0 0)
         2.67             (88.2154 0 0)             (14.3083 0 0)
         2.68             (88.2286 0 0)             (14.6257 0 0)
         2.69             (88.2451 0 0)             (14.9398 0 0)
          2.7             (88.2606 0 0)             (15.2511 0 0)
         2.71             (88.2765 0 0)             (15.5593 0 0)
         2.72             (88.2901 0 0)             (15.8648 0 0)
         2.73             (88.3062 0 0)             (16.1689 0 0)
         2.74             (88.3209 0 0)             (16.4706 0 0)
         2.75             (88.336 0 0)             (16.7701 0 0)
         2.76             (88.3521 0 0)             (17.0668 0 0)
         2.77             (88.3677 0 0)             (17.362 0 0)
         2.78             (88.3843 0 0)             (17.654 0 0)
         2.79             (88.4005 0 0)             (17.9431 0 0)
          2.8             (88.4166 0 0)             (18.2299 0 0)
         2.81             (88.4337 0 0)             (18.5137 0 0)
         2.82             (88.4484 0 0)             (18.7956 0 0)
         2.83             (88.4641 0 0)             (19.075 0 0)
         2.84             (88.481 0 0)             (19.3522 0 0)
         2.85             (88.4973 0 0)             (19.6275 0 0)
         2.86             (88.5124 0 0)             (19.9012 0 0)
         2.87             (88.5291 0 0)             (20.1729 0 0)
         2.88             (88.5448 0 0)             (20.4427 0 0)
         2.89             (88.5612 0 0)             (20.7103 0 0)
          2.9             (88.5781 0 0)             (20.9758 0 0)
         2.91             (88.5948 0 0)             (21.2387 0 0)
         2.92             (88.6095 0 0)             (21.5 0 0)
         2.93             (88.6245 0 0)             (21.7593 0 0)
         2.94             (88.6414 0 0)             (22.0168 0 0)
         2.95             (88.655 0 0)             (22.2734 0 0)
         2.96             (88.6704 0 0)             (22.5285 0 0)
         2.97             (88.6855 0 0)             (22.7818 0 0)
         2.98             (88.6998 0 0)             (23.033 0 0)
         2.99             (88.7158 0 0)             (23.2821 0 0)
            3             (88.7314 0 0)             (23.5299 0 0)
         3.01             (88.7458 0 0)             (23.7766 0 0)
         3.02             (88.7619 0 0)             (24.0211 0 0)
         3.03             (88.7763 0 0)             (24.2642 0 0)
         3.04             (88.7905 0 0)             (24.5058 0 0)
         3.05             (88.8055 0 0)             (24.7454 0 0)
         3.06             (88.8197 0 0)             (24.9836 0 0)
         3.07             (88.8341 0 0)             (25.2197 0 0)
         3.08             (88.8473 0 0)             (25.4533 0 0)
         3.09             (88.8626 0 0)             (25.6849 0 0)
          3.1             (88.8763 0 0)             (25.914 0 0)
         3.11             (88.8899 0 0)             (26.1416 0 0)
         3.12             (88.905 0 0)             (26.368 0 0)
         3.13             (88.9177 0 0)             (26.5926 0 0)
         3.14             (88.9314 0 0)             (26.8151 0 0)
         3.15             (88.946 0 0)             (27.0365 0 0)
         3.16             (88.9582 0 0)             (27.2553 0 0)
         3.17             (88.972 0 0)             (27.4718 0 0)
         3.18             (88.9866 0 0)             (27.6863 0 0)
         3.19             (88.9992 0 0)             (27.899 0 0)
          3.2             (89.0131 0 0)             (28.1097 0 0)
         3.21             (89.0251 0 0)             (28.3195 0 0)
         3.22             (89.0378 0 0)             (28.528 0 0)
         3.23             (89.0516 0 0)             (28.7343 0 0)
         3.24             (89.0639 0 0)             (28.9394 0 0)
         3.25             (89.0769 0 0)             (29.1424 0 0)
         3.26             (89.0886 0 0)             (29.344 0 0)
         3.27             (89.1018 0 0)             (29.545 0 0)
         3.28             (89.1136 0 0)             (29.7442 0 0)
         3.29             (89.1268 0 0)             (29.9415 0 0)
          3.3             (89.139 0 0)             (30.1373 0 0)
