/*--------------------------------*- C++ -*----------------------------------*\
| =========                 |                                                 |
| \\      /  F ield         | OpenFOAM: The Open Source CFD Toolbox           |
|  \\    /   O peration     | Version:  2.4.0                                 |
|   \\  /    A nd           | Web:      www.OpenFOAM.org                      |
|    \\/     M anipulation  |                                                 |
\*---------------------------------------------------------------------------*/
FoamFile
{
    version     2.0;
    format      ascii;
    class       surfaceScalarField;
    location    "0.01";
    object      phi.air;
}
// * * * * * * * * * * * * * * * * * * * * * * * * * * * * * * * * * * * * * //

dimensions      [0 3 -1 0 0 0 0];

internalField   nonuniform List<scalar> 
999
(
9.40729e-08
1.87256e-07
2.78569e-07
3.66473e-07
4.48708e-07
5.22135e-07
5.825e-07
6.24272e-07
6.40461e-07
6.24172e-07
5.67896e-07
4.6505e-07
3.09585e-07
9.71974e-08
-1.74131e-07
-5.03843e-07
-8.8868e-07
-1.32275e-06
-1.79777e-06
-2.30343e-06
-2.8279e-06
-3.35849e-06
-3.88227e-06
-4.38672e-06
-4.85984e-06
-5.29038e-06
-5.66916e-06
-5.98872e-06
-6.24385e-06
-6.43302e-06
-6.55483e-06
-6.60187e-06
-6.57985e-06
-6.50117e-06
-6.37882e-06
-6.19933e-06
-5.97108e-06
-5.6946e-06
-5.37634e-06
-5.04361e-06
-4.69295e-06
-4.33076e-06
-3.96298e-06
-3.59561e-06
-3.23185e-06
-2.87642e-06
-2.53329e-06
-2.20587e-06
-1.89501e-06
-1.60278e-06
-1.33077e-06
-1.06006e-06
-8.31576e-07
-6.29711e-07
-4.34857e-07
-2.644e-07
-1.17138e-07
9.59828e-09
1.21419e-07
2.16838e-07
2.94436e-07
3.58566e-07
4.24307e-07
4.74165e-07
5.07036e-07
5.22956e-07
5.43024e-07
5.49979e-07
5.43881e-07
5.46453e-07
5.4176e-07
5.33967e-07
5.27815e-07
5.10855e-07
4.94416e-07
4.82313e-07
4.63402e-07
4.40085e-07
4.17645e-07
4.00557e-07
3.85258e-07
3.66184e-07
3.34427e-07
3.10875e-07
2.94856e-07
3.01464e-07
2.92558e-07
2.74355e-07
2.48427e-07
2.35847e-07
2.09056e-07
1.94376e-07
1.9089e-07
1.79174e-07
1.76297e-07
1.58049e-07
1.56001e-07
1.39998e-07
1.30664e-07
1.30173e-07
1.22482e-07
1.08582e-07
9.59153e-08
9.58496e-08
8.60671e-08
6.68284e-08
6.48013e-08
6.66293e-08
6.12235e-08
5.70828e-08
5.32418e-08
5.58027e-08
4.64496e-08
2.91782e-08
2.97547e-08
2.51134e-08
3.03683e-08
2.17473e-08
1.81924e-08
6.38971e-09
6.09094e-09
1.39307e-08
8.73676e-09
1.5677e-08
1.13345e-08
5.42116e-09
4.44098e-09
7.60935e-09
6.45149e-09
1.43582e-08
1.73159e-08
1.01577e-08
9.20802e-09
-1.15787e-09
-1.27572e-08
-5.66339e-09
-2.08424e-09
4.20297e-09
2.93185e-09
5.4068e-10
8.65711e-09
1.07736e-09
1.71711e-09
2.20182e-09
8.18284e-09
9.68964e-09
4.2465e-09
1.40777e-08
1.53443e-08
1.04372e-08
8.2066e-09
1.33785e-08
1.46614e-08
1.56935e-08
1.55681e-08
1.26761e-08
1.48347e-08
1.53499e-08
6.09429e-09
1.69485e-09
-3.47549e-09
-4.63414e-09
-5.53467e-09
-3.23232e-10
6.3558e-09
1.40051e-08
9.09046e-09
1.26536e-08
1.04775e-08
3.01858e-09
6.50073e-09
1.70542e-09
-3.28866e-10
-6.35081e-09
-5.3586e-09
-7.56533e-09
-4.98582e-09
4.10534e-09
1.24368e-09
-2.148e-09
-4.46201e-09
5.06477e-09
-4.96412e-09
-1.49656e-08
-1.60356e-08
-1.62247e-08
-6.30927e-09
-1.29194e-08
-1.38753e-08
-9.84046e-09
-5.45361e-09
-1.76014e-08
-1.17677e-08
-5.56248e-09
-1.20157e-08
-6.73056e-09
-1.30406e-08
-7.809e-09
7.21818e-11
-3.61607e-09
4.4962e-09
2.27532e-09
2.2194e-09
-1.26045e-08
-1.92843e-08
-1.02703e-08
-9.15519e-09
-1.37571e-08
-9.42878e-09
-4.90657e-09
6.44312e-09
1.32103e-09
-5.11288e-09
2.14583e-09
-9.93465e-09
-4.51091e-09
-1.29073e-08
-9.46861e-09
-1.67139e-09
-1.31181e-08
-6.5574e-09
-6.21524e-10
-1.00673e-08
1.49018e-09
6.18931e-09
1.8389e-08
1.59188e-08
7.96213e-09
-2.00995e-09
2.26044e-09
-2.77123e-10
9.56487e-09
6.48537e-09
-7.17917e-10
7.70318e-10
1.12448e-08
2.1659e-08
2.15664e-08
1.3074e-08
8.43842e-09
7.03599e-09
1.02207e-08
2.41137e-08
1.09275e-08
-1.73765e-09
-7.23854e-09
-7.58076e-10
6.80517e-09
6.22567e-10
6.3213e-09
4.87549e-09
-2.52019e-09
-7.87055e-09
-4.66207e-09
-9.68089e-09
-5.68335e-09
-1.14361e-08
-2.06306e-08
-5.24912e-09
9.82303e-09
8.37534e-10
-5.6881e-09
-6.10282e-09
-6.8143e-09
-1.78289e-08
-1.1127e-08
-3.30533e-09
-1.42785e-08
-1.70483e-08
-1.08143e-08
-1.57575e-08
-2.26418e-08
-1.24769e-08
-1.55372e-08
-1.31451e-08
-9.43221e-10
8.59222e-12
2.04085e-09
3.82171e-11
2.36604e-09
5.41848e-09
1.79274e-09
-8.29041e-09
-2.23305e-08
-2.04955e-08
-1.54862e-08
-1.21613e-08
-1.34395e-08
-1.46322e-08
-1.66736e-08
-9.91071e-09
-6.24341e-09
-1.24016e-08
-1.31032e-08
-8.25384e-09
-1.2994e-08
-5.93591e-09
1.14717e-09
-5.9186e-09
4.13498e-09
3.01167e-10
-1.34951e-08
-1.54637e-09
-4.91106e-10
-6.46786e-09
-1.04923e-08
-9.58119e-09
-6.31548e-11
-1.05586e-08
-1.04826e-08
-5.2187e-10
8.42968e-10
-7.15013e-09
-4.38046e-09
-5.79335e-09
-5.70204e-09
-4.6231e-09
1.0385e-08
1.43122e-09
8.43783e-09
3.50011e-09
-7.5835e-10
-1.33943e-09
-1.08383e-09
-5.2612e-09
-7.85534e-11
-1.61261e-09
1.96427e-09
8.62039e-09
-3.77504e-09
1.00702e-09
9.38727e-09
2.38489e-08
1.23278e-08
8.03218e-10
8.09134e-10
8.37786e-09
1.01522e-08
1.0612e-08
7.80383e-09
1.11883e-08
1.44345e-08
8.94353e-09
1.30557e-08
1.24733e-08
6.01449e-09
1.24027e-08
1.10116e-08
1.32097e-08
1.10486e-08
1.22203e-08
1.2068e-08
1.47374e-08
8.23615e-09
9.89754e-09
1.60273e-08
1.74335e-08
7.47739e-09
2.10544e-08
1.39804e-08
1.70721e-08
1.32025e-08
4.10695e-09
-8.5748e-09
-1.538e-08
-1.14727e-08
-1.39549e-08
-1.16419e-08
-5.69578e-09
2.13836e-09
2.95671e-09
4.42295e-09
-1.29364e-10
-4.90027e-09
2.9792e-09
7.70066e-10
-6.64258e-09
-9.02171e-09
-1.6788e-08
-1.05819e-08
-9.99784e-09
-2.77749e-09
-9.23785e-09
-1.57005e-08
-1.57474e-08
-1.02481e-08
-1.56955e-08
-1.49091e-08
-1.64012e-09
2.29673e-09
5.70843e-09
9.65306e-10
7.81302e-09
6.40405e-09
-5.73107e-09
-3.7705e-10
-2.14252e-09
3.59328e-09
-2.07208e-09
-7.42974e-09
-1.04438e-08
-1.19664e-08
-5.61772e-09
4.17116e-10
5.55817e-10
-4.18414e-11
-2.28335e-09
-3.38441e-09
-4.24832e-09
-5.01703e-09
-7.30677e-09
-1.5358e-08
-1.75214e-08
-8.90772e-09
-2.27642e-09
-1.71046e-09
-1.00339e-08
-5.85299e-09
-7.70698e-09
9.24453e-09
1.61821e-08
1.44203e-08
7.49665e-09
8.17275e-09
1.32872e-08
1.20852e-09
5.04122e-09
4.53054e-09
7.97073e-09
-2.2435e-10
9.64374e-09
1.12758e-08
1.3845e-08
1.50742e-08
8.03452e-09
4.64723e-09
-3.02087e-09
2.83252e-09
3.31778e-10
1.01512e-08
1.4307e-08
1.14188e-08
5.42458e-09
4.82995e-09
1.04772e-08
8.0431e-09
1.07991e-08
4.85415e-09
-2.3799e-09
-2.65939e-09
3.30113e-09
-2.48009e-09
7.88857e-10
-9.73708e-10
7.97411e-09
6.35764e-09
6.78128e-09
5.90377e-09
1.18271e-08
2.31308e-08
1.82371e-08
1.64034e-08
1.60237e-08
1.2242e-08
1.47704e-08
1.99807e-08
1.02735e-08
2.09134e-09
2.15951e-09
2.26182e-09
5.29438e-09
8.50378e-09
1.26003e-08
9.18696e-09
-2.03948e-10
4.66242e-09
1.45139e-08
7.93355e-09
8.6293e-09
8.68253e-09
9.07725e-09
-4.94913e-09
4.60034e-09
1.31114e-08
1.75177e-08
1.24213e-08
1.18103e-08
1.22536e-08
1.15018e-08
3.16367e-09
7.9712e-09
3.95429e-09
-2.03743e-09
-1.28796e-09
4.37202e-09
-5.91152e-09
-8.6072e-09
-1.66342e-08
-1.71125e-08
-7.44886e-09
-8.72341e-09
-7.21065e-09
-5.32022e-09
3.12058e-09
4.03762e-09
-1.18462e-09
-1.64895e-09
5.45921e-10
-1.10662e-09
-5.94277e-09
-8.23061e-09
-1.01612e-09
-1.70683e-09
-1.40576e-08
-2.12045e-08
-1.99679e-08
-1.45861e-08
-1.13789e-08
-1.02738e-08
-9.46734e-09
1.48455e-09
1.3475e-08
1.53513e-08
4.50892e-09
7.07405e-09
8.00409e-09
4.81918e-10
-1.05621e-08
-2.95287e-10
1.53802e-09
3.50134e-09
-1.49201e-09
-1.32329e-08
-1.49692e-08
-1.83107e-08
-2.33182e-08
-1.6894e-08
-1.05563e-08
4.14341e-10
-1.99883e-09
-1.41732e-08
-1.31463e-08
-1.36901e-08
-9.97781e-09
-9.59706e-09
-1.46183e-08
-1.52283e-08
-1.005e-08
-6.30781e-09
-6.72835e-09
-5.77447e-09
-2.09226e-10
-3.71608e-09
1.16662e-09
6.29856e-09
4.64868e-09
-1.21699e-09
1.05306e-08
6.30414e-09
-7.72054e-09
-1.37041e-08
-1.10781e-08
-5.54139e-09
-1.15988e-08
-8.32167e-09
-6.79177e-09
-7.58612e-09
-7.62939e-09
-5.34899e-09
-9.52765e-09
-4.34317e-09
-6.78726e-09
-1.43161e-08
-1.0388e-08
-1.74583e-08
-8.99814e-09
-6.22109e-09
-9.16621e-09
-2.77566e-09
-7.5753e-09
-1.08064e-08
-8.28074e-09
-2.9282e-09
-2.85741e-09
5.6267e-10
-5.65522e-09
-1.96153e-08
-1.71847e-08
-1.60599e-08
-7.17383e-09
-1.33647e-09
-2.31804e-09
-4.50776e-09
-1.11845e-08
-6.33485e-09
-1.1292e-08
-1.038e-08
-8.05312e-09
-5.13632e-09
-1.60243e-09
-4.21199e-09
-6.97167e-10
2.1162e-09
-1.24327e-09
6.00586e-09
8.69256e-09
1.08215e-08
3.3267e-09
1.58642e-08
1.72534e-08
9.47213e-09
7.99106e-09
-1.65491e-09
-7.269e-09
-8.83521e-09
-1.14893e-08
-3.6606e-09
3.61739e-09
1.34191e-09
4.97128e-10
-5.63976e-09
-9.75779e-09
-7.30678e-09
-4.82066e-09
9.36909e-10
-5.532e-10
1.91341e-09
7.39084e-09
3.68467e-09
-6.75151e-09
-1.61886e-08
-6.86577e-09
-3.67293e-09
9.01739e-09
1.48281e-08
1.02086e-08
7.64124e-09
4.92997e-09
-3.87333e-10
3.66601e-09
9.78381e-09
4.70644e-09
-4.74562e-09
8.6416e-09
4.63536e-09
1.63348e-11
4.86304e-09
8.08333e-09
8.62282e-09
-7.62823e-09
-3.2318e-09
-1.44513e-08
-3.17121e-09
3.60447e-09
-5.04106e-09
2.46482e-09
8.27661e-09
7.59589e-09
7.00921e-09
2.06308e-09
1.23239e-08
1.20108e-08
4.77693e-09
-2.54161e-10
1.56152e-09
-2.49e-09
6.07261e-09
1.48092e-08
1.41168e-08
2.35844e-09
-5.84521e-11
-1.12364e-09
-5.16584e-09
1.57247e-09
-5.48856e-09
-1.3481e-09
9.26449e-09
2.53536e-08
1.78516e-08
8.54454e-09
-5.73716e-09
-7.49787e-09
4.26406e-10
-2.24562e-09
2.8757e-09
1.13093e-08
6.27715e-09
4.45215e-09
1.34712e-09
4.54415e-09
1.03105e-09
1.76836e-09
5.46441e-09
-9.07337e-09
-2.08132e-09
9.1651e-09
4.58225e-09
7.38609e-09
7.94624e-09
-4.43942e-09
4.54202e-09
1.81785e-09
-1.69511e-09
-6.86408e-09
-2.92271e-09
1.09487e-08
5.26566e-09
7.96365e-09
1.07839e-08
1.45433e-08
7.85279e-09
1.15205e-09
-6.64709e-09
-4.94709e-09
-2.8404e-10
-4.52163e-10
4.89618e-09
9.72574e-09
6.85411e-09
7.92572e-09
1.9707e-08
1.37181e-08
1.2945e-08
1.38381e-08
1.12018e-08
9.09621e-09
-7.12812e-10
2.19222e-09
1.01083e-08
2.01271e-09
6.25747e-09
7.60574e-09
1.13634e-08
1.48386e-08
8.29122e-09
5.41212e-09
6.31496e-10
3.86854e-09
5.88874e-11
4.71892e-09
7.22773e-09
9.45587e-09
8.33633e-09
3.68003e-09
7.53518e-09
-1.04831e-09
-4.01255e-09
7.19538e-10
-1.08339e-09
-2.99084e-09
-4.87838e-09
-8.27309e-09
-8.0999e-10
9.30794e-09
-4.60658e-09
1.95775e-09
2.55117e-09
7.3635e-09
6.0804e-09
-1.49479e-10
-6.03455e-09
1.90811e-09
9.10974e-09
1.34506e-08
3.40544e-09
-7.34564e-09
-7.4203e-09
-9.01731e-09
-5.0871e-09
5.61942e-09
1.28125e-08
5.41977e-09
1.42657e-08
5.61768e-09
1.60306e-08
1.90964e-08
9.39593e-09
-4.55797e-09
4.0496e-10
-1.80842e-09
-7.20837e-09
5.50721e-09
6.51097e-09
7.23557e-09
6.47663e-09
-1.56968e-09
-1.15106e-08
-9.63057e-09
-1.07541e-08
8.39566e-10
2.78183e-09
2.89974e-09
3.39145e-09
-2.34038e-09
-7.25887e-09
-6.67725e-09
9.48237e-10
-8.09749e-09
1.64362e-09
2.6585e-09
-4.78492e-10
-1.57469e-08
-3.86375e-09
-1.02785e-08
-3.64306e-09
1.07311e-08
1.82886e-08
1.48301e-08
9.48017e-09
-1.30145e-08
-1.06089e-08
-1.71225e-09
1.9095e-09
1.32788e-09
-2.57659e-09
8.55337e-10
6.30055e-09
4.19406e-09
6.79353e-09
-2.53687e-09
-1.80099e-09
-3.21261e-09
-5.51374e-09
-2.63953e-11
-4.8988e-10
-3.81811e-09
-7.67065e-09
-2.63896e-09
-6.10548e-09
4.58161e-09
-2.54806e-09
1.16874e-09
-1.91958e-09
4.74528e-09
9.94579e-09
1.07927e-08
1.37191e-08
3.63887e-08
5.41289e-08
6.66186e-08
7.70597e-08
8.50778e-08
1.09306e-07
1.45904e-07
1.85034e-07
2.35657e-07
3.04901e-07
3.80527e-07
4.69655e-07
5.83782e-07
7.19839e-07
8.79257e-07
1.081e-06
1.31027e-06
1.61564e-06
1.97634e-06
2.41319e-06
2.94185e-06
3.58062e-06
4.33737e-06
5.26219e-06
6.37464e-06
7.71124e-06
9.31615e-06
1.12427e-05
1.35545e-05
1.63267e-05
1.96492e-05
2.3629e-05
2.83928e-05
3.40913e-05
4.09033e-05
4.90411e-05
5.87566e-05
7.03473e-05
8.41665e-05
0.000100632
0.000120236
0.000143563
0.0001713
0.000204259
0.000243397
0.000289839
0.00034491
0.000410167
0.000487437
0.000578865
0.000686965
0.000814681
0.000965456
0.00114332
0.00135296
0.00159988
0.00189045
0.00223212
0.00263354
0.00310476
0.00365746
0.00430516
0.00515875
0.0061645
0.00735046
0.00874945
0.0103999
0.0123465
0.0146419
0.017347
0.0205332
0.0242834
0.0286944
0.0338783
0.0399653
0.0471064
0.0554765
0.0652773
0.0767421
0.0901394
0.105778
0.124013
0.145252
0.169959
0.198667
0.231983
0.270596
0.31529
0.366954
0.426591
0.495334
0.574458
0.665394
0.769745
0.8893
1.02605
1.18222
1.36024
1.56284
1.79298
2.05394
2.34929
2.68291
3.05903
3.48221
3.95736
4.48974
5.08499
5.74906
6.48826
7.30923
8.21889
9.22445
10.3333
11.5532
12.8917
14.3566
15.9558
17.6969
19.5874
21.6343
23.8443
26.2235
28.7772
31.51
34.4251
37.5247
40.8097
44.2793
47.931
51.7604
55.7612
59.9253
64.2421
68.6994
73.283
77.9773
82.7654
87.6298
92.5531
97.5187
102.512
107.521
112.537
117.558
122.585
127.627
132.698
137.818
143.012
148.312
153.742
159.345
165.135
171.163
177.421
183.983
190.785
197.912
205.27
212.936
212.684
)
;

boundaryField
{
    sideLeft
    {
        type            symmetryPlane;
        value           uniform 0;
    }
    sideRight
    {
        type            calculated;
        value           uniform 227.054;
    }
    topbottom
    {
        type            empty;
        value           nonuniform 0();
    }
    frontback
    {
        type            empty;
        value           nonuniform 0();
    }
}


// ************************************************************************* //
