/*--------------------------------*- C++ -*----------------------------------*\
| =========                 |                                                 |
| \\      /  F ield         | OpenFOAM: The Open Source CFD Toolbox           |
|  \\    /   O peration     | Version:  2.4.0                                 |
|   \\  /    A nd           | Web:      www.OpenFOAM.org                      |
|    \\/     M anipulation  |                                                 |
\*---------------------------------------------------------------------------*/
FoamFile
{
    version     2.0;
    format      ascii;
    class       surfaceScalarField;
    location    "0.01";
    object      phi.water;
}
// * * * * * * * * * * * * * * * * * * * * * * * * * * * * * * * * * * * * * //

dimensions      [0 3 -1 0 0 0 0];

internalField   nonuniform List<scalar> 
999
(
9.1977e-08
1.83092e-07
2.72395e-07
3.58382e-07
4.38848e-07
5.10719e-07
5.69819e-07
6.10702e-07
6.26457e-07
6.1026e-07
5.54655e-07
4.5308e-07
2.9947e-07
8.94754e-08
-1.79005e-07
-5.05523e-07
-8.86949e-07
-1.31754e-06
-1.78914e-06
-2.29158e-06
-2.81318e-06
-3.34133e-06
-3.86321e-06
-4.36634e-06
-4.83875e-06
-5.26924e-06
-5.64859e-06
-5.96933e-06
-6.22624e-06
-6.41775e-06
-6.54248e-06
-6.59296e-06
-6.57494e-06
-6.50925e-06
-6.38316e-06
-6.19136e-06
-5.94869e-06
-5.67693e-06
-5.37258e-06
-5.04257e-06
-4.69413e-06
-4.3337e-06
-3.96731e-06
-3.60095e-06
-3.23789e-06
-2.88286e-06
-2.53986e-06
-2.21231e-06
-1.90109e-06
-1.60826e-06
-1.33543e-06
-1.07378e-06
-8.44606e-07
-6.31291e-07
-4.41242e-07
-2.70028e-07
-1.11707e-07
1.27282e-08
1.34484e-07
2.22383e-07
2.96963e-07
3.58952e-07
4.22685e-07
4.7018e-07
5.01233e-07
5.16073e-07
5.35517e-07
5.42159e-07
5.36101e-07
5.38694e-07
5.33334e-07
5.23322e-07
5.12214e-07
5.02891e-07
4.92212e-07
4.89061e-07
4.71064e-07
4.41741e-07
4.19303e-07
4.10596e-07
3.854e-07
3.6449e-07
3.35796e-07
3.21225e-07
2.9817e-07
2.9861e-07
2.88298e-07
2.71878e-07
2.49711e-07
2.41354e-07
2.16672e-07
2.05107e-07
1.91587e-07
1.78887e-07
1.72576e-07
1.60534e-07
1.56512e-07
1.43283e-07
1.25762e-07
1.15476e-07
1.08546e-07
1.0457e-07
9.70085e-08
8.73958e-08
8.54209e-08
7.13095e-08
6.72346e-08
6.98261e-08
6.31926e-08
5.73061e-08
5.1431e-08
4.45108e-08
4.4496e-08
3.89094e-08
4.58718e-08
3.45362e-08
3.05979e-08
2.25713e-08
1.96889e-08
1.14697e-08
1.00718e-08
1.38906e-08
9.65944e-09
8.16596e-09
2.65559e-09
4.61899e-09
9.87795e-09
1.07962e-08
1.87084e-09
8.6848e-09
1.07861e-08
5.68663e-09
1.27605e-08
5.60604e-09
-2.16158e-10
-3.90675e-11
-2.04012e-09
9.06011e-09
9.73623e-09
2.46107e-09
2.93365e-09
2.03096e-09
7.7407e-09
1.89534e-09
6.1906e-09
1.04054e-08
1.35679e-08
2.75664e-08
2.07831e-08
1.13071e-08
3.87652e-09
1.25695e-08
8.25902e-09
-6.43908e-09
1.36766e-09
5.85488e-09
6.57055e-09
7.05256e-09
-4.25257e-09
-8.23819e-09
-7.15893e-09
9.86534e-10
2.9059e-09
9.3847e-09
6.53541e-09
1.03421e-08
1.74865e-08
2.54916e-08
1.79554e-08
1.27506e-08
1.53938e-08
5.2679e-09
-2.15787e-09
-1.234e-09
-2.29133e-09
-9.27426e-09
-8.62606e-09
-5.8177e-09
-4.42702e-09
-9.35984e-09
-6.73074e-09
2.9611e-09
1.26776e-10
-2.74241e-09
-5.93244e-09
-9.53899e-09
-6.3934e-09
-1.41318e-08
-1.80821e-08
-1.40178e-08
-1.03308e-08
-2.03563e-08
-1.25594e-08
-3.52658e-09
-6.72015e-09
-8.9802e-09
-1.09297e-08
-4.82222e-09
-6.14331e-09
-1.19298e-08
-1.07324e-08
-2.71099e-09
-6.53039e-09
-1.93175e-08
-2.0603e-08
-1.50833e-08
-1.5855e-08
-1.20236e-08
-1.37593e-08
-4.28448e-09
1.02471e-08
4.61117e-10
1.93753e-09
5.87203e-09
-3.04005e-10
2.52676e-09
-3.03561e-09
-4.96479e-09
-6.59586e-09
-7.12409e-09
-7.95211e-09
-8.99707e-09
-7.98997e-09
-6.55931e-09
-3.515e-09
3.82162e-09
7.13584e-09
6.04582e-09
3.73488e-09
5.01302e-09
1.21911e-08
2.11277e-08
1.31843e-08
2.72135e-09
-6.66615e-09
3.24927e-10
6.09025e-09
3.97083e-09
1.66758e-09
5.32196e-10
6.98506e-09
5.05068e-09
1.47264e-08
8.26498e-09
1.48106e-09
-3.85043e-10
1.50702e-09
4.10989e-09
-3.40513e-09
-3.85322e-09
1.2607e-09
3.79579e-09
-7.54903e-09
-6.39602e-09
-1.65739e-08
-5.13856e-09
-4.91597e-09
-1.17989e-08
-1.54203e-09
9.35098e-09
4.84113e-09
7.86974e-09
-4.25743e-10
-3.98396e-09
-8.20916e-09
-6.08659e-09
-3.21939e-09
-9.66282e-09
-1.48801e-08
-1.31013e-08
-1.7672e-08
-2.23644e-08
-1.56256e-08
-8.52949e-09
-5.7436e-09
-6.5548e-09
-7.07501e-09
-7.0209e-09
-1.03746e-08
2.19687e-09
4.43088e-10
-4.6781e-10
-6.19402e-09
-1.96752e-08
-2.12535e-08
-1.63507e-08
-8.41557e-09
-3.44729e-09
1.78328e-09
-4.18757e-09
1.70129e-10
-2.39944e-09
-1.09137e-08
-2.12677e-08
-2.29194e-08
-1.70058e-08
-1.00409e-08
-2.39759e-09
-1.13183e-08
-3.49569e-09
-2.61741e-09
-1.31495e-08
-4.11479e-09
7.29234e-09
7.68023e-09
3.42341e-09
3.7379e-09
4.85175e-09
-6.98697e-09
-5.17665e-09
-3.88427e-09
3.96481e-09
3.81846e-10
8.93589e-09
-6.90188e-10
-1.88398e-09
-2.21111e-09
5.77843e-09
1.82043e-10
1.05078e-08
-4.84837e-10
7.51577e-09
1.49819e-09
1.98663e-09
-5.44855e-09
-1.40095e-09
2.87939e-09
-6.55071e-10
-2.5732e-09
-1.28619e-09
-1.6819e-09
5.48008e-09
1.64297e-08
7.46382e-09
-9.75751e-10
-8.37267e-09
-4.10177e-09
-1.19967e-08
-4.09719e-10
8.70013e-09
1.24752e-08
1.16251e-08
9.84894e-09
1.30571e-08
7.38379e-09
7.41875e-09
1.11804e-08
1.01471e-08
1.10892e-08
1.63489e-09
1.047e-08
9.50913e-09
1.48983e-08
1.76767e-08
1.55023e-08
1.61382e-08
1.43094e-08
1.5355e-08
2.04341e-08
1.24178e-08
1.4058e-08
1.1565e-08
6.56395e-09
-4.84388e-10
-3.52065e-09
3.5347e-10
-7.21738e-09
-3.54243e-09
-8.85763e-09
-6.65008e-09
-4.97818e-09
-3.36779e-09
5.70947e-10
-8.43461e-10
3.4758e-10
-2.01117e-09
-8.3729e-09
-1.32829e-09
-5.08595e-09
-8.89481e-09
-8.10337e-09
-7.5096e-09
-8.92953e-09
-1.04555e-08
-1.32549e-08
-6.7406e-09
-1.80461e-08
-2.01682e-08
-3.8138e-09
6.20847e-09
5.43648e-09
5.60328e-09
7.82893e-09
4.88564e-09
-1.19047e-08
-1.80003e-08
-8.10562e-09
-8.63351e-09
-9.42398e-09
-5.47842e-09
3.21438e-10
1.01531e-09
2.62139e-09
1.16989e-08
3.83727e-09
4.59521e-09
-1.12966e-09
7.87103e-09
1.9767e-09
-2.59233e-09
-1.24813e-08
-1.53125e-08
-1.45637e-08
-1.29577e-08
-9.08945e-09
-9.3002e-09
-7.58097e-09
-2.22456e-09
-1.43237e-09
1.62181e-08
1.39566e-08
1.45508e-08
1.298e-08
4.23782e-09
6.03712e-09
-3.77277e-09
1.97304e-09
7.35645e-11
-4.62485e-09
-5.55125e-09
4.39732e-09
7.80829e-09
5.0215e-09
5.06791e-09
7.55228e-11
4.04378e-09
5.2569e-09
7.81427e-09
1.11461e-08
2.3288e-08
1.6703e-08
1.02687e-08
1.18134e-09
4.64032e-09
1.90796e-09
9.54104e-09
8.70227e-09
7.26569e-09
1.18214e-08
1.03405e-08
8.97774e-09
3.15699e-10
-2.13426e-09
-7.95449e-10
8.13873e-09
8.15708e-09
1.03351e-08
1.14672e-08
1.04724e-08
7.25605e-09
1.09598e-08
2.22614e-08
1.10324e-08
3.13069e-09
1.6417e-08
2.20538e-08
8.33131e-09
1.28784e-08
3.66882e-09
-5.57073e-09
-3.96608e-09
-6.20274e-10
2.84047e-09
6.55261e-09
6.16298e-09
1.39957e-08
1.68067e-08
1.64601e-08
1.58734e-08
2.04868e-08
1.68475e-08
-1.34753e-09
2.22246e-09
1.16631e-08
1.9072e-08
1.41421e-08
6.40112e-09
9.13402e-09
1.03667e-08
1.638e-08
1.08347e-08
1.45258e-08
1.14895e-08
5.53689e-09
3.04779e-09
-9.63544e-09
-1.73042e-08
-1.55441e-08
-1.65791e-08
-1.13606e-08
-8.98397e-09
-1.01615e-08
-1.15803e-08
-9.95022e-09
-1.48426e-08
-1.43532e-08
-1.21445e-08
-1.58695e-08
-7.36985e-09
-8.678e-10
-7.59169e-09
-9.66109e-10
3.23308e-09
-3.52248e-09
-5.10188e-09
-1.39389e-08
-8.36698e-09
-3.5991e-09
-3.30315e-10
2.72535e-09
6.03338e-09
1.06983e-08
9.28136e-09
-8.41318e-09
-6.31644e-09
-3.9635e-09
-2.28704e-09
-8.51259e-09
-6.57808e-09
-4.87392e-09
-3.56635e-09
-2.34875e-09
-1.32697e-08
-2.93882e-09
-1.31311e-08
-9.75856e-09
-9.58345e-09
-1.32879e-08
-1.33313e-08
-1.29751e-08
-1.36598e-08
-1.44291e-08
-2.02534e-08
-1.76121e-08
-1.21923e-08
-9.50283e-09
-3.53487e-09
-5.24013e-09
-2.18961e-09
-2.46645e-09
-2.72219e-09
-7.79804e-09
-2.28544e-09
2.8169e-09
1.41025e-08
5.38081e-09
-5.78493e-09
-6.28735e-09
-1.47386e-09
-9.78146e-09
-1.3424e-08
-1.2597e-08
-1.08856e-08
-7.67566e-09
-1.02748e-08
-1.36171e-08
-1.07262e-08
-1.3668e-08
-4.09207e-09
-9.84415e-09
-7.41499e-09
-4.36392e-09
-1.16072e-08
-1.00015e-08
-9.8831e-09
-2.48616e-09
-7.49347e-09
-1.7852e-09
4.37024e-09
2.68789e-09
-9.17886e-09
-3.40399e-10
1.13587e-09
-4.43623e-10
-6.3545e-09
-1.12691e-08
-2.103e-08
-1.49578e-08
-1.10345e-08
-3.58223e-09
1.26787e-09
-8.30387e-09
-1.91779e-08
-2.01731e-08
-1.46845e-08
-1.56794e-08
-7.65606e-09
-1.42481e-08
-4.76934e-09
-3.908e-09
-6.62623e-09
-1.25379e-08
-1.25938e-09
4.97495e-09
1.86519e-08
8.36195e-09
1.02754e-08
6.22891e-09
1.44109e-08
1.36199e-08
5.71364e-09
6.52131e-09
1.58835e-09
-7.793e-10
1.91977e-10
-3.85639e-09
-6.25493e-09
2.67606e-09
5.0549e-09
3.16239e-09
-1.04454e-09
-7.9297e-09
-5.80065e-09
-3.54828e-09
5.99961e-09
3.1116e-09
-3.80777e-09
-8.77997e-09
-6.84635e-09
-1.60074e-08
-2.60079e-08
-1.84109e-08
-9.96299e-09
-7.20117e-09
4.19792e-09
3.21098e-09
8.82266e-09
1.55279e-08
1.55993e-08
6.19302e-09
7.79291e-09
1.01429e-08
3.59264e-09
5.3192e-09
6.06463e-09
6.28822e-09
5.79846e-09
7.72591e-09
1.8439e-08
1.05144e-08
1.37248e-08
2.67674e-09
5.27572e-09
6.29966e-10
-5.59038e-09
-4.83114e-09
-6.35853e-09
-3.26393e-09
5.13928e-09
1.07237e-08
2.11756e-08
2.09629e-08
1.07232e-08
3.29741e-09
8.67583e-10
1.26131e-08
1.08302e-08
8.91473e-09
6.28017e-09
7.65715e-09
2.18982e-09
-3.15181e-09
2.77033e-10
-1.53845e-09
-3.67684e-09
-3.62138e-09
4.9444e-09
1.6446e-08
1.02637e-08
3.04301e-09
-1.36611e-08
-4.78667e-09
-2.39076e-09
3.55649e-09
7.74313e-10
3.13964e-10
-2.96648e-09
3.74957e-09
8.32295e-09
1.67077e-08
1.74411e-08
1.32457e-08
5.85912e-09
2.99154e-09
-2.13262e-11
4.11193e-10
-3.22211e-10
-5.67917e-10
1.44198e-09
-3.489e-09
6.21912e-09
4.90695e-09
-3.47317e-09
-1.35802e-08
-4.99816e-09
2.32535e-09
5.6522e-09
3.41254e-09
1.05183e-09
1.64555e-08
1.06513e-08
5.67088e-09
-2.99717e-10
-1.23543e-09
-1.11031e-09
1.34773e-09
-4.12284e-09
-4.03675e-09
-2.31178e-09
1.8985e-09
2.23516e-09
3.82374e-09
-8.76321e-09
-1.46099e-09
8.51471e-09
1.88533e-08
1.591e-08
1.33799e-08
1.55021e-08
1.32409e-08
4.17336e-09
9.89172e-10
1.38963e-08
1.74761e-08
9.41171e-09
9.39661e-09
8.63777e-09
5.02495e-09
4.16799e-09
8.77163e-09
9.40324e-09
9.91289e-09
8.37088e-09
9.26569e-09
9.90349e-09
1.12267e-08
3.75636e-09
4.72621e-10
-1.03017e-09
-2.5038e-09
5.11744e-10
-2.05077e-09
2.24819e-09
8.52076e-09
2.63437e-09
1.21242e-09
-4.40237e-09
-6.96151e-09
-6.43014e-09
3.25741e-10
-1.43291e-10
7.96626e-09
1.04112e-08
1.12396e-08
3.89837e-09
-3.24608e-09
-2.30121e-09
-2.60445e-09
-4.13349e-09
4.74084e-09
3.18819e-09
-3.43143e-09
-4.82454e-09
-6.5568e-09
2.86388e-10
7.17704e-09
6.00078e-09
3.2746e-09
3.74144e-09
1.13815e-08
1.00561e-08
1.48286e-08
2.17937e-08
1.5406e-08
1.51746e-08
5.27518e-09
-5.47786e-09
-1.35318e-08
-6.37537e-09
9.43427e-09
1.26085e-08
8.14114e-09
4.96986e-09
3.06747e-09
2.02662e-09
-2.4431e-09
-3.22771e-09
-9.49947e-09
-3.018e-09
-6.32504e-09
-1.10818e-08
-2.40351e-08
-5.98332e-09
2.48474e-10
2.26094e-09
7.74338e-09
8.56969e-09
8.99068e-09
3.10734e-09
-1.46425e-08
-9.89356e-09
-6.44161e-09
-6.99718e-09
-5.7539e-09
-9.13496e-09
-2.69351e-09
1.04233e-08
-1.60989e-09
-3.70068e-09
-3.27082e-09
-5.50944e-09
-8.32714e-09
-7.59374e-09
-3.06911e-09
-3.03102e-09
-8.65298e-09
-5.78345e-09
-7.14461e-09
-2.71089e-10
9.62747e-09
1.0317e-09
6.99086e-09
9.80472e-09
8.96943e-09
7.82848e-09
1.56554e-08
1.86845e-08
2.97225e-08
3.79785e-08
5.10071e-08
7.06454e-08
8.99635e-08
1.17094e-07
1.47998e-07
1.95316e-07
2.42343e-07
3.09253e-07
3.79154e-07
4.67654e-07
5.71776e-07
7.03477e-07
8.76619e-07
1.06775e-06
1.30069e-06
1.60561e-06
1.9601e-06
2.39587e-06
2.92308e-06
3.56005e-06
4.31441e-06
5.23676e-06
6.34642e-06
7.67996e-06
9.28162e-06
1.12048e-05
1.35134e-05
1.62825e-05
1.96026e-05
2.35807e-05
2.83443e-05
3.40445e-05
4.08611e-05
4.90075e-05
5.87369e-05
7.03489e-05
8.41989e-05
0.000100707
0.000120371
0.000143779
0.000171624
0.000204725
0.000244048
0.00029073
0.000346107
0.000411753
0.000489514
0.000581556
0.000690419
0.000819073
0.000970992
0.00115023
0.00136152
0.00161037
0.00190317
0.00224735
0.00265151
0.00312559
0.00368106
0.00433109
0.00519231
0.00620584
0.00740016
0.00880848
0.0104695
0.0124285
0.0147381
0.0174598
0.0206654
0.0244383
0.0288756
0.0340901
0.0402126
0.047395
0.0558126
0.0656685
0.0771967
0.0906669
0.106389
0.124721
0.146069
0.170901
0.199752
0.23323
0.272027
0.316929
0.368827
0.428728
0.497767
0.577222
0.668527
0.773287
0.893296
1.03055
1.18726
1.3659
1.56915
1.80001
2.06175
2.35794
2.69246
3.06955
3.49376
3.97001
4.50356
5.10004
5.76542
6.50599
7.32841
8.23959
9.24675
10.3573
11.5789
12.9193
14.3863
15.9877
17.7311
19.624
21.6736
23.8864
26.2686
28.8256
31.5616
34.48
37.583
40.8711
44.3435
47.9974
51.8283
55.8297
59.993
64.3075
68.7607
73.3382
78.0242
82.8018
87.6537
92.5627
97.5127
102.49
107.482
112.483
117.49
122.506
127.54
132.606
137.727
142.924
148.23
153.67
159.284
165.083
171.124
177.378
183.941
190.73
197.839
205.13
212.763
212.464
)
;

boundaryField
{
    sideLeft
    {
        type            symmetryPlane;
        value           uniform 0;
    }
    sideRight
    {
        type            calculated;
        value           uniform 218.628;
    }
    topbottom
    {
        type            empty;
        value           nonuniform 0();
    }
    frontback
    {
        type            empty;
        value           nonuniform 0();
    }
}


// ************************************************************************* //
