/*--------------------------------*- C++ -*----------------------------------*\
| =========                 |                                                 |
| \\      /  F ield         | OpenFOAM: The Open Source CFD Toolbox           |
|  \\    /   O peration     | Version:  2.4.0                                 |
|   \\  /    A nd           | Web:      www.OpenFOAM.org                      |
|    \\/     M anipulation  |                                                 |
\*---------------------------------------------------------------------------*/
FoamFile
{
    version     2.0;
    format      ascii;
    class       volVectorField;
    location    "0.01";
    object      U.airMean;
}
// * * * * * * * * * * * * * * * * * * * * * * * * * * * * * * * * * * * * * //

dimensions      [0 1 -1 0 0 0 0];

internalField   nonuniform List<vector> 
1000
(
(-3.309e-07 0 0)
(-8.37284e-07 0 0)
(-1.13448e-06 0 0)
(-1.32558e-06 0 0)
(-1.43112e-06 0 0)
(-1.48021e-06 0 0)
(-1.49091e-06 0 0)
(-1.4763e-06 0 0)
(-1.44562e-06 0 0)
(-1.40814e-06 0 0)
(-1.36826e-06 0 0)
(-1.32656e-06 0 0)
(-1.2858e-06 0 0)
(-1.247e-06 0 0)
(-1.21034e-06 0 0)
(-1.17484e-06 0 0)
(-1.14243e-06 0 0)
(-1.11273e-06 0 0)
(-1.08381e-06 0 0)
(-1.05645e-06 0 0)
(-1.02402e-06 0 0)
(-9.89383e-07 0 0)
(-9.54289e-07 0 0)
(-9.14203e-07 0 0)
(-8.71929e-07 0 0)
(-8.27265e-07 0 0)
(-7.81713e-07 0 0)
(-7.35554e-07 0 0)
(-6.87905e-07 0 0)
(-6.39646e-07 0 0)
(-5.91054e-07 0 0)
(-5.4264e-07 0 0)
(-4.94844e-07 0 0)
(-4.47759e-07 0 0)
(-4.01827e-07 0 0)
(-3.5746e-07 0 0)
(-3.14648e-07 0 0)
(-2.73765e-07 0 0)
(-2.3493e-07 0 0)
(-1.98237e-07 0 0)
(-1.64047e-07 0 0)
(-1.32338e-07 0 0)
(-1.03126e-07 0 0)
(-7.64501e-08 0 0)
(-5.22991e-08 0 0)
(-3.0577e-08 0 0)
(-1.12154e-08 0 0)
(5.91341e-09 0 0)
(2.09545e-08 0 0)
(3.41981e-08 0 0)
(4.61687e-08 0 0)
(5.67273e-08 0 0)
(6.52864e-08 0 0)
(7.20188e-08 0 0)
(7.73921e-08 0 0)
(8.15132e-08 0 0)
(8.44945e-08 0 0)
(8.66041e-08 0 0)
(8.79158e-08 0 0)
(8.87374e-08 0 0)
(8.88905e-08 0 0)
(8.8046e-08 0 0)
(8.665e-08 0 0)
(8.48814e-08 0 0)
(8.27372e-08 0 0)
(8.02049e-08 0 0)
(7.74643e-08 0 0)
(7.46869e-08 0 0)
(7.16293e-08 0 0)
(6.84612e-08 0 0)
(6.54208e-08 0 0)
(6.24653e-08 0 0)
(5.9735e-08 0 0)
(5.71373e-08 0 0)
(5.46343e-08 0 0)
(5.22183e-08 0 0)
(4.97956e-08 0 0)
(4.74148e-08 0 0)
(4.49238e-08 0 0)
(4.23108e-08 0 0)
(3.97849e-08 0 0)
(3.72675e-08 0 0)
(3.46282e-08 0 0)
(3.19246e-08 0 0)
(2.93565e-08 0 0)
(2.71335e-08 0 0)
(2.50477e-08 0 0)
(2.27007e-08 0 0)
(2.02567e-08 0 0)
(1.79834e-08 0 0)
(1.59348e-08 0 0)
(1.4263e-08 0 0)
(1.32665e-08 0 0)
(1.23164e-08 0 0)
(1.11777e-08 0 0)
(1.05555e-08 0 0)
(1.00043e-08 0 0)
(9.06305e-09 0 0)
(8.24583e-09 0 0)
(7.70758e-09 0 0)
(7.47565e-09 0 0)
(6.46468e-09 0 0)
(5.45794e-09 0 0)
(4.88816e-09 0 0)
(4.20213e-09 0 0)
(3.76512e-09 0 0)
(3.45779e-09 0 0)
(3.32281e-09 0 0)
(2.77676e-09 0 0)
(2.53393e-09 0 0)
(2.40234e-09 0 0)
(2.08929e-09 0 0)
(2.20893e-09 0 0)
(2.09021e-09 0 0)
(2.00234e-09 0 0)
(1.99878e-09 0 0)
(1.6124e-09 0 0)
(2.06266e-09 0 0)
(2.28012e-09 0 0)
(1.67769e-09 0 0)
(1.52851e-09 0 0)
(1.84815e-09 0 0)
(1.65638e-09 0 0)
(1.43194e-09 0 0)
(1.94667e-09 0 0)
(2.16391e-09 0 0)
(2.1382e-09 0 0)
(2.48521e-09 0 0)
(2.7811e-09 0 0)
(2.68737e-09 0 0)
(2.39161e-09 0 0)
(2.11477e-09 0 0)
(1.62562e-09 0 0)
(9.77515e-10 0 0)
(8.34658e-10 0 0)
(1.34846e-09 0 0)
(1.76624e-09 0 0)
(1.93877e-09 0 0)
(1.96365e-09 0 0)
(1.56403e-09 0 0)
(1.20905e-09 0 0)
(1.03226e-09 0 0)
(1.08674e-09 0 0)
(7.89801e-10 0 0)
(2.37543e-10 0 0)
(-3.58594e-11 0 0)
(-2.63525e-10 0 0)
(3.20626e-10 0 0)
(6.51469e-10 0 0)
(3.11773e-10 0 0)
(4.97052e-10 0 0)
(2.60966e-10 0 0)
(-3.22548e-10 0 0)
(-5.15501e-10 0 0)
(-3.97632e-10 0 0)
(-3.15405e-10 0 0)
(4.98192e-11 0 0)
(1.96911e-10 0 0)
(2.44112e-10 0 0)
(3.43585e-10 0 0)
(1.23425e-10 0 0)
(-5.10302e-10 0 0)
(-9.59983e-10 0 0)
(-1.01146e-09 0 0)
(-8.25522e-10 0 0)
(-5.53858e-10 0 0)
(-4.88994e-10 0 0)
(-3.38821e-10 0 0)
(-5.10511e-10 0 0)
(-1.02879e-09 0 0)
(-1.35852e-09 0 0)
(-1.25116e-09 0 0)
(-1.37763e-09 0 0)
(-1.40043e-09 0 0)
(-1.12522e-09 0 0)
(-7.44209e-10 0 0)
(-3.7387e-10 0 0)
(-1.84622e-10 0 0)
(-5.81636e-10 0 0)
(-8.44636e-10 0 0)
(-9.19918e-10 0 0)
(-8.78825e-10 0 0)
(-8.01268e-10 0 0)
(-1.1325e-09 0 0)
(-1.10891e-09 0 0)
(-1.01192e-09 0 0)
(-6.5961e-10 0 0)
(-4.92291e-10 0 0)
(-4.07949e-10 0 0)
(-1.01741e-10 0 0)
(-1.47949e-10 0 0)
(1.29185e-10 0 0)
(4.12435e-10 0 0)
(5.11558e-10 0 0)
(7.00435e-10 0 0)
(6.2376e-10 0 0)
(1.74671e-10 0 0)
(-3.87581e-10 0 0)
(-4.69185e-10 0 0)
(-3.13751e-10 0 0)
(-1.40798e-10 0 0)
(2.60725e-10 0 0)
(5.08299e-10 0 0)
(3.30485e-10 0 0)
(1.49919e-10 0 0)
(-2.77867e-10 0 0)
(-1.06175e-09 0 0)
(-1.34211e-09 0 0)
(-1.21796e-09 0 0)
(-1.34697e-09 0 0)
(-1.38153e-09 0 0)
(-1.26135e-09 0 0)
(-8.77822e-10 0 0)
(-6.87046e-10 0 0)
(-5.37409e-10 0 0)
(-1.20299e-10 0 0)
(-6.07203e-10 0 0)
(-3.90861e-10 0 0)
(-3.29754e-10 0 0)
(-2.26204e-10 0 0)
(2.28284e-10 0 0)
(-2.13309e-10 0 0)
(2.64204e-10 0 0)
(5.64036e-10 0 0)
(1.04733e-10 0 0)
(-5.99608e-11 0 0)
(2.53805e-11 0 0)
(-1.44984e-10 0 0)
(-4.5479e-10 0 0)
(-3.02549e-10 0 0)
(1.45134e-10 0 0)
(8.28952e-11 0 0)
(1.85264e-10 0 0)
(5.88679e-10 0 0)
(5.07107e-10 0 0)
(4.34858e-10 0 0)
(4.00247e-11 0 0)
(3.39688e-10 0 0)
(7.33194e-10 0 0)
(6.5246e-10 0 0)
(6.83814e-10 0 0)
(3.7801e-10 0 0)
(1.23508e-10 0 0)
(-5.54175e-11 0 0)
(-1.82856e-10 0 0)
(-6.3774e-10 0 0)
(-6.23728e-10 0 0)
(-2.35539e-10 0 0)
(-3.7463e-10 0 0)
(-3.34391e-10 0 0)
(-9.27291e-11 0 0)
(-2.36555e-10 0 0)
(-7.25487e-11 0 0)
(1.05058e-11 0 0)
(-9.24996e-11 0 0)
(1.84048e-10 0 0)
(3.00387e-10 0 0)
(4.48865e-10 0 0)
(6.28785e-10 0 0)
(8.70708e-10 0 0)
(1.41256e-09 0 0)
(1.66321e-09 0 0)
(1.63799e-09 0 0)
(1.6087e-09 0 0)
(1.25565e-09 0 0)
(6.74557e-10 0 0)
(2.03701e-10 0 0)
(-4.66485e-11 0 0)
(-8.81457e-11 0 0)
(5.25794e-11 0 0)
(-1.11117e-10 0 0)
(-4.72317e-10 0 0)
(-5.939e-10 0 0)
(-2.35342e-10 0 0)
(-1.79973e-10 0 0)
(-7.69623e-10 0 0)
(-6.46094e-10 0 0)
(-4.75935e-10 0 0)
(-9.6332e-10 0 0)
(-7.94983e-10 0 0)
(-6.1591e-10 0 0)
(-1.08978e-09 0 0)
(-1.79441e-09 0 0)
(-2.21717e-09 0 0)
(-2.29673e-09 0 0)
(-2.39303e-09 0 0)
(-2.75946e-09 0 0)
(-3.15733e-09 0 0)
(-3.20601e-09 0 0)
(-3.23239e-09 0 0)
(-3.18685e-09 0 0)
(-2.89761e-09 0 0)
(-2.98444e-09 0 0)
(-2.91431e-09 0 0)
(-2.66672e-09 0 0)
(-2.28008e-09 0 0)
(-2.08803e-09 0 0)
(-2.34306e-09 0 0)
(-1.64526e-09 0 0)
(-1.45438e-09 0 0)
(-1.5393e-09 0 0)
(-1.12051e-09 0 0)
(-1.14658e-09 0 0)
(-1.17431e-09 0 0)
(-1.18741e-09 0 0)
(-6.50716e-10 0 0)
(-5.0037e-10 0 0)
(-3.55006e-10 0 0)
(-9.89208e-11 0 0)
(-4.74999e-10 0 0)
(-2.59495e-10 0 0)
(1.61422e-10 0 0)
(4.95338e-10 0 0)
(6.80472e-10 0 0)
(7.09715e-10 0 0)
(8.72464e-10 0 0)
(1.01856e-09 0 0)
(1.06622e-09 0 0)
(1.40452e-09 0 0)
(1.56627e-09 0 0)
(1.35446e-09 0 0)
(7.89437e-10 0 0)
(1.05307e-09 0 0)
(1.55608e-09 0 0)
(1.71288e-09 0 0)
(2.23798e-09 0 0)
(2.39552e-09 0 0)
(2.35094e-09 0 0)
(2.14493e-09 0 0)
(2.33042e-09 0 0)
(2.42318e-09 0 0)
(2.03127e-09 0 0)
(1.68461e-09 0 0)
(1.59968e-09 0 0)
(1.50049e-09 0 0)
(1.14335e-09 0 0)
(7.42387e-10 0 0)
(4.88995e-10 0 0)
(6.96743e-10 0 0)
(8.68965e-10 0 0)
(9.77138e-10 0 0)
(1.05455e-09 0 0)
(1.0714e-09 0 0)
(1.33796e-09 0 0)
(1.61926e-09 0 0)
(1.24506e-09 0 0)
(6.46324e-10 0 0)
(-1.4703e-12 0 0)
(-4.26626e-10 0 0)
(-8.35133e-10 0 0)
(-1.11833e-09 0 0)
(-9.36881e-10 0 0)
(-8.53504e-10 0 0)
(-3.29222e-10 0 0)
(-2.13977e-10 0 0)
(-1.95001e-11 0 0)
(3.44768e-10 0 0)
(-3.30177e-11 0 0)
(-5.26722e-10 0 0)
(-7.32265e-10 0 0)
(-6.25224e-10 0 0)
(-4.53058e-10 0 0)
(-3.88484e-10 0 0)
(-5.27107e-10 0 0)
(-3.06401e-10 0 0)
(-2.10802e-10 0 0)
(-3.88131e-10 0 0)
(7.13439e-11 0 0)
(4.54903e-10 0 0)
(5.76046e-10 0 0)
(9.15166e-10 0 0)
(1.02102e-09 0 0)
(4.74993e-10 0 0)
(6.36942e-11 0 0)
(5.31441e-11 0 0)
(1.63642e-10 0 0)
(5.39338e-10 0 0)
(3.40916e-10 0 0)
(3.5446e-11 0 0)
(2.64314e-10 0 0)
(1.78816e-10 0 0)
(1.17087e-10 0 0)
(4.41354e-10 0 0)
(8.063e-10 0 0)
(9.24965e-10 0 0)
(8.55111e-10 0 0)
(1.00192e-09 0 0)
(1.16417e-09 0 0)
(1.20118e-09 0 0)
(1.05258e-09 0 0)
(1.0972e-09 0 0)
(9.58261e-10 0 0)
(4.05265e-10 0 0)
(-1.34343e-10 0 0)
(-8.27295e-10 0 0)
(-1.15673e-09 0 0)
(-1.35896e-09 0 0)
(-1.26046e-09 0 0)
(-9.93215e-10 0 0)
(-1.28377e-09 0 0)
(-1.54582e-09 0 0)
(-1.64221e-09 0 0)
(-1.44333e-09 0 0)
(-1.15694e-09 0 0)
(-1.44547e-09 0 0)
(-1.46163e-09 0 0)
(-1.02335e-09 0 0)
(-9.54192e-10 0 0)
(-1.24544e-09 0 0)
(-1.58428e-09 0 0)
(-1.60174e-09 0 0)
(-1.46666e-09 0 0)
(-1.38224e-09 0 0)
(-1.02928e-09 0 0)
(-8.37629e-10 0 0)
(-6.54731e-10 0 0)
(-7.85802e-10 0 0)
(-1.35596e-09 0 0)
(-1.53118e-09 0 0)
(-1.78975e-09 0 0)
(-1.70061e-09 0 0)
(-1.41186e-09 0 0)
(-1.42066e-09 0 0)
(-1.10391e-09 0 0)
(-1.06467e-09 0 0)
(-6.65155e-10 0 0)
(-4.97165e-10 0 0)
(-7.6509e-10 0 0)
(-3.82909e-10 0 0)
(-9.43887e-11 0 0)
(3.24193e-11 0 0)
(-1.50082e-10 0 0)
(-1.36771e-10 0 0)
(2.62944e-10 0 0)
(4.75989e-10 0 0)
(5.39598e-10 0 0)
(4.21791e-10 0 0)
(7.15695e-10 0 0)
(1.02092e-09 0 0)
(1.20019e-09 0 0)
(1.68993e-09 0 0)
(1.84947e-09 0 0)
(1.78206e-09 0 0)
(1.63475e-09 0 0)
(1.48911e-09 0 0)
(1.35835e-09 0 0)
(1.81501e-09 0 0)
(2.32868e-09 0 0)
(1.74155e-09 0 0)
(1.73474e-09 0 0)
(2.23946e-09 0 0)
(2.05189e-09 0 0)
(2.13881e-09 0 0)
(2.44956e-09 0 0)
(2.87371e-09 0 0)
(3.23183e-09 0 0)
(2.9889e-09 0 0)
(2.23733e-09 0 0)
(1.9065e-09 0 0)
(2.03211e-09 0 0)
(1.9694e-09 0 0)
(2.16066e-09 0 0)
(2.4987e-09 0 0)
(2.29349e-09 0 0)
(2.07608e-09 0 0)
(2.35717e-09 0 0)
(2.71888e-09 0 0)
(2.80921e-09 0 0)
(2.74844e-09 0 0)
(2.53586e-09 0 0)
(2.14279e-09 0 0)
(2.59994e-09 0 0)
(2.8097e-09 0 0)
(1.96211e-09 0 0)
(1.08614e-09 0 0)
(5.83998e-10 0 0)
(3.99001e-10 0 0)
(2.21496e-10 0 0)
(5.17505e-10 0 0)
(5.31464e-10 0 0)
(2.59981e-10 0 0)
(2.69565e-10 0 0)
(4.92234e-10 0 0)
(4.83633e-10 0 0)
(3.08444e-10 0 0)
(5.49694e-10 0 0)
(4.03225e-10 0 0)
(6.747e-10 0 0)
(1.08104e-09 0 0)
(6.83462e-10 0 0)
(1.00763e-10 0 0)
(-3.87665e-10 0 0)
(-6.45113e-10 0 0)
(-5.0002e-10 0 0)
(-1.2559e-10 0 0)
(-9.67141e-11 0 0)
(-2.70415e-10 0 0)
(-6.73151e-12 0 0)
(1.84931e-10 0 0)
(3.78647e-10 0 0)
(7.93951e-10 0 0)
(5.49064e-10 0 0)
(1.66509e-10 0 0)
(1.116e-10 0 0)
(-1.8354e-10 0 0)
(-5.15698e-10 0 0)
(-6.06126e-10 0 0)
(-6.28723e-10 0 0)
(-4.45473e-10 0 0)
(-3.62555e-10 0 0)
(-4.6522e-10 0 0)
(-6.30953e-10 0 0)
(-9.90196e-10 0 0)
(-1.39157e-09 0 0)
(-1.64576e-09 0 0)
(-1.9852e-09 0 0)
(-2.35981e-09 0 0)
(-2.11395e-09 0 0)
(-1.91846e-09 0 0)
(-1.93757e-09 0 0)
(-1.51379e-09 0 0)
(-1.17285e-09 0 0)
(-1.1268e-09 0 0)
(-7.55206e-10 0 0)
(-4.9268e-10 0 0)
(-6.2645e-10 0 0)
(-1.05728e-09 0 0)
(-1.74639e-09 0 0)
(-1.98597e-09 0 0)
(-1.34972e-09 0 0)
(-9.6362e-10 0 0)
(-1.31981e-09 0 0)
(-1.43093e-09 0 0)
(-1.19537e-09 0 0)
(-1.13732e-09 0 0)
(-1.07508e-09 0 0)
(-7.66183e-10 0 0)
(-8.1464e-10 0 0)
(-1.02343e-09 0 0)
(-9.32455e-10 0 0)
(-8.74147e-10 0 0)
(-1.25466e-09 0 0)
(-1.38289e-09 0 0)
(-1.34531e-09 0 0)
(-1.05237e-09 0 0)
(-7.40165e-10 0 0)
(-4.71489e-10 0 0)
(-2.57508e-10 0 0)
(-3.6061e-10 0 0)
(-5.97429e-10 0 0)
(-9.41456e-10 0 0)
(-7.23662e-10 0 0)
(-3.7336e-10 0 0)
(-4.42426e-10 0 0)
(-5.07781e-10 0 0)
(-8.86693e-10 0 0)
(-1.51721e-09 0 0)
(-1.64412e-09 0 0)
(-1.58374e-09 0 0)
(-1.65515e-09 0 0)
(-1.0747e-09 0 0)
(-9.36939e-10 0 0)
(-1.37043e-09 0 0)
(-7.86702e-10 0 0)
(-7.60796e-10 0 0)
(-8.34541e-10 0 0)
(-8.02367e-10 0 0)
(-1.39757e-09 0 0)
(-1.73571e-09 0 0)
(-2.1178e-09 0 0)
(-1.99555e-09 0 0)
(-1.85809e-09 0 0)
(-1.84521e-09 0 0)
(-1.29068e-09 0 0)
(-9.97784e-10 0 0)
(-1.14991e-09 0 0)
(-1.34913e-09 0 0)
(-1.45042e-09 0 0)
(-1.4022e-09 0 0)
(-1.59339e-09 0 0)
(-1.84889e-09 0 0)
(-1.72846e-09 0 0)
(-1.60769e-09 0 0)
(-1.6987e-09 0 0)
(-1.50874e-09 0 0)
(-1.05071e-09 0 0)
(-8.60071e-10 0 0)
(-6.84903e-10 0 0)
(-5.44928e-10 0 0)
(-3.43672e-10 0 0)
(1.16076e-10 0 0)
(1.93825e-10 0 0)
(8.39932e-12 0 0)
(-7.92363e-11 0 0)
(4.78661e-10 0 0)
(3.80598e-10 0 0)
(4.3e-10 0 0)
(7.88324e-10 0 0)
(8.60169e-10 0 0)
(1.20006e-09 0 0)
(9.71092e-10 0 0)
(1.14396e-09 0 0)
(1.52885e-09 0 0)
(1.67063e-09 0 0)
(1.81086e-09 0 0)
(2.02337e-09 0 0)
(1.70462e-09 0 0)
(1.07199e-09 0 0)
(6.28909e-10 0 0)
(6.19557e-10 0 0)
(6.96833e-10 0 0)
(4.07703e-10 0 0)
(2.10712e-10 0 0)
(2.22536e-10 0 0)
(1.71105e-10 0 0)
(5.36621e-11 0 0)
(6.32321e-10 0 0)
(8.84749e-10 0 0)
(7.80535e-10 0 0)
(4.64382e-10 0 0)
(-1.18437e-10 0 0)
(-5.34891e-10 0 0)
(-1.72934e-10 0 0)
(1.76687e-10 0 0)
(-5.11144e-10 0 0)
(-6.86609e-10 0 0)
(-3.90213e-10 0 0)
(-5.21644e-11 0 0)
(1.27476e-10 0 0)
(3.86247e-10 0 0)
(4.90242e-10 0 0)
(4.90321e-10 0 0)
(5.38016e-10 0 0)
(3.51698e-10 0 0)
(3.6121e-10 0 0)
(5.2337e-10 0 0)
(4.48706e-10 0 0)
(1.68634e-10 0 0)
(3.40577e-11 0 0)
(1.56149e-10 0 0)
(2.4518e-10 0 0)
(-4.10875e-10 0 0)
(-1.17578e-09 0 0)
(-1.42105e-09 0 0)
(-1.25246e-09 0 0)
(-8.3991e-10 0 0)
(-7.99217e-10 0 0)
(-8.72209e-10 0 0)
(-9.68502e-10 0 0)
(-8.59201e-10 0 0)
(-1.05362e-09 0 0)
(-7.74787e-10 0 0)
(-4.6603e-10 0 0)
(-6.89576e-10 0 0)
(-9.92287e-11 0 0)
(1.01941e-10 0 0)
(-2.37299e-10 0 0)
(1.80708e-10 0 0)
(4.22603e-10 0 0)
(4.97497e-10 0 0)
(5.62869e-10 0 0)
(3.84534e-10 0 0)
(5.7142e-10 0 0)
(6.45178e-10 0 0)
(4.91625e-10 0 0)
(9.12889e-10 0 0)
(1.42001e-09 0 0)
(1.31213e-09 0 0)
(1.43439e-09 0 0)
(1.4255e-09 0 0)
(9.03623e-10 0 0)
(6.41481e-10 0 0)
(4.27472e-10 0 0)
(7.0224e-10 0 0)
(1.02551e-09 0 0)
(7.70379e-10 0 0)
(5.1225e-10 0 0)
(2.62386e-10 0 0)
(3.16653e-10 0 0)
(1.03447e-10 0 0)
(4.06804e-10 0 0)
(2.61914e-10 0 0)
(-4.02851e-10 0 0)
(-5.8078e-10 0 0)
(-4.1291e-10 0 0)
(4.19764e-10 0 0)
(5.54515e-10 0 0)
(2.57464e-10 0 0)
(4.38839e-11 0 0)
(-7.38879e-11 0 0)
(-1.6581e-10 0 0)
(4.84776e-12 0 0)
(7.63692e-10 0 0)
(9.02099e-10 0 0)
(5.34865e-10 0 0)
(5.73084e-11 0 0)
(-7.29249e-11 0 0)
(2.89966e-10 0 0)
(2.85087e-10 0 0)
(-1.99352e-10 0 0)
(-5.96977e-10 0 0)
(-6.51663e-10 0 0)
(-2.44411e-10 0 0)
(4.41663e-11 0 0)
(6.02094e-10 0 0)
(1.27113e-09 0 0)
(1.19171e-09 0 0)
(8.87787e-10 0 0)
(6.59943e-10 0 0)
(4.01635e-10 0 0)
(3.71707e-10 0 0)
(5.1879e-10 0 0)
(2.98158e-10 0 0)
(4.7689e-10 0 0)
(8.018e-10 0 0)
(6.22194e-10 0 0)
(5.89597e-10 0 0)
(6.95264e-10 0 0)
(3.54053e-10 0 0)
(-1.0617e-10 0 0)
(-3.94618e-10 0 0)
(3.88018e-11 0 0)
(2.87258e-10 0 0)
(6.57509e-10 0 0)
(1.03438e-09 0 0)
(8.60542e-10 0 0)
(1.11586e-09 0 0)
(1.39985e-09 0 0)
(1.65211e-09 0 0)
(1.78429e-09 0 0)
(2.12126e-09 0 0)
(1.85126e-09 0 0)
(1.38663e-09 0 0)
(1.31683e-09 0 0)
(1.41183e-09 0 0)
(1.06118e-09 0 0)
(1.01897e-09 0 0)
(1.36521e-09 0 0)
(1.07523e-09 0 0)
(7.83642e-10 0 0)
(1.2852e-09 0 0)
(1.7642e-09 0 0)
(1.25454e-09 0 0)
(1.37446e-09 0 0)
(1.61114e-09 0 0)
(1.18058e-09 0 0)
(6.48815e-10 0 0)
(5.00584e-10 0 0)
(2.99602e-10 0 0)
(4.01974e-10 0 0)
(7.34244e-10 0 0)
(6.10996e-10 0 0)
(2.42034e-10 0 0)
(-1.97039e-10 0 0)
(-3.85572e-10 0 0)
(-3.00905e-10 0 0)
(-1.15074e-10 0 0)
(3.33292e-10 0 0)
(4.67721e-10 0 0)
(2.67994e-10 0 0)
(5.47387e-10 0 0)
(5.62855e-10 0 0)
(6.0694e-10 0 0)
(9.11715e-10 0 0)
(9.55741e-10 0 0)
(3.87721e-10 0 0)
(7.8116e-10 0 0)
(1.17216e-09 0 0)
(4.6655e-10 0 0)
(-4.9701e-11 0 0)
(-5.63762e-10 0 0)
(-8.68827e-10 0 0)
(-8.47055e-10 0 0)
(-4.82127e-10 0 0)
(-1.43138e-10 0 0)
(-1.37926e-10 0 0)
(-6.48464e-10 0 0)
(-1.11406e-09 0 0)
(-1.34741e-09 0 0)
(-1.62383e-09 0 0)
(-1.63009e-09 0 0)
(-1.43445e-09 0 0)
(-9.36472e-10 0 0)
(-5.96151e-10 0 0)
(-7.42069e-10 0 0)
(-5.95188e-10 0 0)
(-4.89206e-10 0 0)
(-7.55193e-10 0 0)
(-7.87137e-10 0 0)
(-6.1507e-10 0 0)
(-2.11762e-10 0 0)
(9.73216e-11 0 0)
(-1.64685e-10 0 0)
(-3.38796e-11 0 0)
(3.28396e-10 0 0)
(2.83395e-10 0 0)
(4.62002e-10 0 0)
(8.23273e-10 0 0)
(1.26973e-09 0 0)
(1.65064e-09 0 0)
(1.64244e-09 0 0)
(1.46266e-09 0 0)
(8.60026e-10 0 0)
(5.44704e-10 0 0)
(9.7824e-10 0 0)
(1.4291e-09 0 0)
(2.07824e-09 0 0)
(2.44783e-09 0 0)
(2.53978e-09 0 0)
(2.66472e-09 0 0)
(2.3807e-09 0 0)
(1.82279e-09 0 0)
(1.25491e-09 0 0)
(6.76409e-10 0 0)
(5.5504e-10 0 0)
(7.20132e-10 0 0)
(6.54019e-10 0 0)
(3.97399e-10 0 0)
(-4.52554e-11 0 0)
(-3.72905e-10 0 0)
(-7.38315e-10 0 0)
(-3.29629e-10 0 0)
(-1.35742e-10 0 0)
(-2.27138e-11 0 0)
(5.19769e-10 0 0)
(4.89301e-10 0 0)
(4.95044e-12 0 0)
(-5.37777e-10 0 0)
(-8.64809e-10 0 0)
(-1.01657e-09 0 0)
(-7.95395e-10 0 0)
(-7.63812e-10 0 0)
(-9.96719e-10 0 0)
(-1.18729e-09 0 0)
(-1.52427e-09 0 0)
(-1.65682e-09 0 0)
(-1.56728e-09 0 0)
(-1.17372e-09 0 0)
(-2.55558e-10 0 0)
(3.02296e-10 0 0)
(3.42279e-10 0 0)
(2.47221e-10 0 0)
(4.17128e-10 0 0)
(7.64285e-10 0 0)
(1.0384e-09 0 0)
(2.05777e-09 0 0)
(3.93665e-09 0 0)
(6.05881e-09 0 0)
(8.72541e-09 0 0)
(1.16399e-08 0 0)
(1.56744e-08 0 0)
(2.05311e-08 0 0)
(2.5813e-08 0 0)
(3.26693e-08 0 0)
(4.09366e-08 0 0)
(5.1319e-08 0 0)
(6.39421e-08 0 0)
(7.92541e-08 0 0)
(9.74723e-08 0 0)
(1.19972e-07 0 0)
(1.47561e-07 0 0)
(1.80129e-07 0 0)
(2.19682e-07 0 0)
(2.67719e-07 0 0)
(3.25702e-07 0 0)
(3.95449e-07 0 0)
(4.79811e-07 0 0)
(5.81648e-07 0 0)
(7.03999e-07 0 0)
(8.51183e-07 0 0)
(1.02814e-06 0 0)
(1.24072e-06 0 0)
(1.49584e-06 0 0)
(1.8017e-06 0 0)
(2.16817e-06 0 0)
(2.6069e-06 0 0)
(3.13174e-06 0 0)
(3.75917e-06 0 0)
(4.5087e-06 0 0)
(5.40352e-06 0 0)
(6.47103e-06 0 0)
(7.74374e-06 0 0)
(9.26008e-06 0 0)
(1.10655e-05 0 0)
(1.32135e-05 0 0)
(1.57675e-05 0 0)
(1.88022e-05 0 0)
(2.24055e-05 0 0)
(2.66811e-05 0 0)
(3.17507e-05 0 0)
(3.77577e-05 0 0)
(4.48703e-05 0 0)
(5.32859e-05 0 0)
(6.32359e-05 0 0)
(7.49914e-05 0 0)
(8.88695e-05 0 0)
(0.000105241 0 0)
(0.000124541 0 0)
(0.00014727 0 0)
(0.000175797 0 0)
(0.000211256 0 0)
(0.000253258 0 0)
(0.00030305 0 0)
(0.000362095 0 0)
(0.000432117 0 0)
(0.000515144 0 0)
(0.000613562 0 0)
(0.000730177 0 0)
(0.000868282 0 0)
(0.00103174 0 0)
(0.00122509 0 0)
(0.00145364 0 0)
(0.0017236 0 0)
(0.00204224 0 0)
(0.00241803 0 0)
(0.00286086 0 0)
(0.00338227 0 0)
(0.00399566 0 0)
(0.00471661 0 0)
(0.00556321 0 0)
(0.00655642 0 0)
(0.0077205 0 0)
(0.00908349 0 0)
(0.0106778 0 0)
(0.0125406 0 0)
(0.0147149 0 0)
(0.01725 0 0)
(0.0202024 0 0)
(0.0236368 0 0)
(0.0276273 0 0)
(0.0322583 0 0)
(0.0376259 0 0)
(0.0438396 0 0)
(0.0510232 0 0)
(0.0593174 0 0)
(0.068881 0 0)
(0.0798931 0 0)
(0.0925553 0 0)
(0.107094 0 0)
(0.123764 0 0)
(0.142847 0 0)
(0.164662 0 0)
(0.189561 0 0)
(0.217936 0 0)
(0.25022 0 0)
(0.286894 0 0)
(0.328486 0 0)
(0.375578 0 0)
(0.428809 0 0)
(0.488875 0 0)
(0.55654 0 0)
(0.632633 0 0)
(0.718052 0 0)
(0.813771 0 0)
(0.920841 0 0)
(1.04039 0 0)
(1.17363 0 0)
(1.32186 0 0)
(1.48646 0 0)
(1.66889 0 0)
(1.8707 0 0)
(2.09353 0 0)
(2.33909 0 0)
(2.6092 0 0)
(2.9057 0 0)
(3.23056 0 0)
(3.58577 0 0)
(3.9734 0 0)
(4.39556 0 0)
(4.85438 0 0)
(5.35204 0 0)
(5.89072 0 0)
(6.47261 0 0)
(7.09989 0 0)
(7.7747 0 0)
(8.49919 0 0)
(9.27545 0 0)
(10.1056 0 0)
(10.9916 0 0)
(11.9356 0 0)
(12.9396 0 0)
(14.0057 0 0)
(15.1361 0 0)
(16.3334 0 0)
(17.5995 0 0)
(18.9384 0 0)
(20.3506 0 0)
(21.8452 0 0)
(23.4141 0 0)
(25.0855 0 0)
(26.8193 0 0)
(28.699 0 0)
(30.6005 0 0)
(32.7282 0 0)
(34.7809 0 0)
(37.1623 0 0)
(39.3135 0 0)
(41.637 0 0)
(43.0727 0 0)
(48.2815 0 0)
)
;

boundaryField
{
    sideLeft
    {
        type            symmetryPlane;
    }
    sideRight
    {
        type            calculated;
        value           uniform (48.2815 0 0);
    }
    topbottom
    {
        type            empty;
    }
    frontback
    {
        type            empty;
    }
}


// ************************************************************************* //
