/*--------------------------------*- C++ -*----------------------------------*\
| =========                 |                                                 |
| \\      /  F ield         | OpenFOAM: The Open Source CFD Toolbox           |
|  \\    /   O peration     | Version:  2.4.0                                 |
|   \\  /    A nd           | Web:      www.OpenFOAM.org                      |
|    \\/     M anipulation  |                                                 |
\*---------------------------------------------------------------------------*/
FoamFile
{
    version     2.0;
    format      ascii;
    class       volVectorField;
    location    "0.01";
    object      U.air;
}
// * * * * * * * * * * * * * * * * * * * * * * * * * * * * * * * * * * * * * //

dimensions      [0 1 -1 0 0 0 0];

internalField   nonuniform List<vector> 
1000
(
(5.51712e-09 0 0)
(3.14829e-08 0 0)
(5.9171e-08 0 0)
(7.99948e-08 0 0)
(1.03983e-07 0 0)
(1.22716e-07 0 0)
(1.38462e-07 0 0)
(1.52258e-07 0 0)
(1.60967e-07 0 0)
(1.60207e-07 0 0)
(1.49972e-07 0 0)
(1.30031e-07 0 0)
(9.75029e-08 0 0)
(5.14983e-08 0 0)
(-8.64664e-09 0 0)
(-8.23107e-08 0 0)
(-1.71913e-07 0 0)
(-2.75869e-07 0 0)
(-3.89647e-07 0 0)
(-5.12485e-07 0 0)
(-6.37767e-07 0 0)
(-7.69507e-07 0 0)
(-9.04871e-07 0 0)
(-1.03343e-06 0 0)
(-1.15557e-06 0 0)
(-1.26751e-06 0 0)
(-1.3687e-06 0 0)
(-1.45703e-06 0 0)
(-1.52893e-06 0 0)
(-1.58447e-06 0 0)
(-1.62313e-06 0 0)
(-1.64414e-06 0 0)
(-1.6475e-06 0 0)
(-1.63503e-06 0 0)
(-1.60989e-06 0 0)
(-1.57217e-06 0 0)
(-1.52084e-06 0 0)
(-1.45774e-06 0 0)
(-1.38377e-06 0 0)
(-1.30242e-06 0 0)
(-1.21696e-06 0 0)
(-1.12787e-06 0 0)
(-1.03658e-06 0 0)
(-9.44676e-07 0 0)
(-8.53354e-07 0 0)
(-7.63469e-07 0 0)
(-6.76138e-07 0 0)
(-5.92269e-07 0 0)
(-5.12517e-07 0 0)
(-4.37236e-07 0 0)
(-3.66671e-07 0 0)
(-2.9878e-07 0 0)
(-2.36414e-07 0 0)
(-1.82599e-07 0 0)
(-1.33007e-07 0 0)
(-8.73936e-08 0 0)
(-4.76957e-08 0 0)
(-1.34329e-08 0 0)
(1.63763e-08 0 0)
(4.22827e-08 0 0)
(6.39265e-08 0 0)
(8.16306e-08 0 0)
(9.78598e-08 0 0)
(1.12308e-07 0 0)
(1.22651e-07 0 0)
(1.28747e-07 0 0)
(1.33243e-07 0 0)
(1.36618e-07 0 0)
(1.36724e-07 0 0)
(1.36287e-07 0 0)
(1.3602e-07 0 0)
(1.34458e-07 0 0)
(1.32716e-07 0 0)
(1.29831e-07 0 0)
(1.25667e-07 0 0)
(1.2209e-07 0 0)
(1.18202e-07 0 0)
(1.12939e-07 0 0)
(1.07234e-07 0 0)
(1.02286e-07 0 0)
(9.82379e-08 0 0)
(9.39346e-08 0 0)
(8.75884e-08 0 0)
(8.06395e-08 0 0)
(7.56703e-08 0 0)
(7.45302e-08 0 0)
(7.42772e-08 0 0)
(7.08526e-08 0 0)
(6.53071e-08 0 0)
(6.04854e-08 0 0)
(5.55636e-08 0 0)
(5.03862e-08 0 0)
(4.81851e-08 0 0)
(4.63595e-08 0 0)
(4.43279e-08 0 0)
(4.17168e-08 0 0)
(3.93444e-08 0 0)
(3.68693e-08 0 0)
(3.36724e-08 0 0)
(3.19786e-08 0 0)
(3.1258e-08 0 0)
(2.88351e-08 0 0)
(2.54829e-08 0 0)
(2.39355e-08 0 0)
(2.24742e-08 0 0)
(1.90453e-08 0 0)
(1.63733e-08 0 0)
(1.61688e-08 0 0)
(1.55178e-08 0 0)
(1.47817e-08 0 0)
(1.38956e-08 0 0)
(1.33566e-08 0 0)
(1.25251e-08 0 0)
(9.43135e-09 0 0)
(7.23418e-09 0 0)
(6.60515e-09 0 0)
(6.67991e-09 0 0)
(6.39904e-09 0 0)
(4.95646e-09 0 0)
(2.9001e-09 0 0)
(1.41518e-09 0 0)
(2.54102e-09 0 0)
(2.69671e-09 0 0)
(2.746e-09 0 0)
(3.21416e-09 0 0)
(2.0255e-09 0 0)
(1.15745e-09 0 0)
(1.51419e-09 0 0)
(1.87827e-09 0 0)
(2.61741e-09 0 0)
(3.70147e-09 0 0)
(3.32836e-09 0 0)
(2.38715e-09 0 0)
(6.81903e-10 0 0)
(-1.74713e-09 0 0)
(-2.1414e-09 0 0)
(-1.08298e-09 0 0)
(2.63919e-10 0 0)
(8.23487e-10 0 0)
(5.50127e-10 0 0)
(1.16489e-09 0 0)
(8.63618e-10 0 0)
(3.80563e-10 0 0)
(4.15013e-10 0 0)
(1.14586e-09 0 0)
(2.29597e-09 0 0)
(1.50818e-09 0 0)
(2.16523e-09 0 0)
(3.55271e-09 0 0)
(2.91089e-09 0 0)
(2.477e-09 0 0)
(2.53743e-09 0 0)
(3.20297e-09 0 0)
(3.79005e-09 0 0)
(3.78987e-09 0 0)
(3.23326e-09 0 0)
(3.28135e-09 0 0)
(3.53891e-09 0 0)
(2.51094e-09 0 0)
(8.49118e-10 0 0)
(-1.45643e-10 0 0)
(-1.12295e-09 0 0)
(-1.45456e-09 0 0)
(-6.2311e-10 0 0)
(7.30106e-10 0 0)
(2.32121e-09 0 0)
(2.83161e-09 0 0)
(3.01567e-09 0 0)
(3.03544e-09 0 0)
(1.68257e-09 0 0)
(1.18388e-09 0 0)
(1.49629e-09 0 0)
(3.16901e-10 0 0)
(-8.16447e-10 0 0)
(-1.20895e-09 0 0)
(-1.45184e-09 0 0)
(-1.45827e-09 0 0)
(-1.3973e-10 0 0)
(5.21421e-10 0 0)
(-9.90242e-11 0 0)
(-5.97197e-10 0 0)
(1.57484e-11 0 0)
(-2.58919e-10 0 0)
(-2.53612e-09 0 0)
(-3.57675e-09 0 0)
(-4.03793e-09 0 0)
(-2.918e-09 0 0)
(-2.41999e-09 0 0)
(-3.18357e-09 0 0)
(-2.47116e-09 0 0)
(-1.69553e-09 0 0)
(-2.57456e-09 0 0)
(-3.36275e-09 0 0)
(-2.17802e-09 0 0)
(-2.11885e-09 0 0)
(-2.23128e-09 0 0)
(-2.2281e-09 0 0)
(-2.50634e-09 0 0)
(-1.06547e-09 0 0)
(-3.61978e-10 0 0)
(3.36118e-10 0 0)
(9.02049e-10 0 0)
(4.20981e-10 0 0)
(-1.10027e-09 0 0)
(-3.54727e-09 0 0)
(-3.6622e-09 0 0)
(-2.70638e-09 0 0)
(-2.68227e-09 0 0)
(-2.77112e-09 0 0)
(-1.95178e-09 0 0)
(5.3838e-11 0 0)
(8.81082e-10 0 0)
(-2.75975e-10 0 0)
(-5.95779e-10 0 0)
(-1.00516e-09 0 0)
(-1.28461e-09 0 0)
(-2.35855e-09 0 0)
(-2.70262e-09 0 0)
(-1.31013e-09 0 0)
(-1.47924e-09 0 0)
(-1.93786e-09 0 0)
(-1.06883e-09 0 0)
(-8.7676e-10 0 0)
(-6.4302e-10 0 0)
(9.97545e-10 0 0)
(3.21854e-09 0 0)
(4.45824e-09 0 0)
(2.86884e-09 0 0)
(1.06111e-09 0 0)
(3.4914e-10 0 0)
(2.98999e-10 0 0)
(9.48777e-10 0 0)
(1.60879e-09 0 0)
(7.81824e-10 0 0)
(-4.0761e-11 0 0)
(1.55182e-09 0 0)
(3.8238e-09 0 0)
(5.20805e-09 0 0)
(4.34568e-09 0 0)
(2.72166e-09 0 0)
(1.82723e-09 0 0)
(1.87101e-09 0 0)
(4.04857e-09 0 0)
(4.06653e-09 0 0)
(1.27051e-09 0 0)
(-1.4316e-09 0 0)
(-1.24885e-09 0 0)
(1.00733e-09 0 0)
(1.15592e-09 0 0)
(1.08378e-09 0 0)
(1.4445e-09 0 0)
(-7.56177e-12 0 0)
(-9.94249e-10 0 0)
(-1.22265e-09 0 0)
(-1.85474e-09 0 0)
(-1.75521e-09 0 0)
(-2.21866e-09 0 0)
(-3.61525e-09 0 0)
(-2.93085e-09 0 0)
(4.03474e-10 0 0)
(1.67381e-09 0 0)
(-3.23438e-10 0 0)
(-1.53119e-09 0 0)
(-1.75959e-09 0 0)
(-3.23787e-09 0 0)
(-3.48775e-09 0 0)
(-1.74555e-09 0 0)
(-2.25282e-09 0 0)
(-3.83575e-09 0 0)
(-3.46167e-09 0 0)
(-3.43785e-09 0 0)
(-4.67782e-09 0 0)
(-4.3081e-09 0 0)
(-3.48313e-09 0 0)
(-3.26559e-09 0 0)
(-1.68245e-09 0 0)
(-1.46657e-10 0 0)
(2.73129e-10 0 0)
(4.11433e-10 0 0)
(5.56839e-10 0 0)
(1.00732e-09 0 0)
(1.07099e-09 0 0)
(-9.37858e-10 0 0)
(-3.67567e-09 0 0)
(-5.1245e-09 0 0)
(-4.22222e-09 0 0)
(-3.30755e-09 0 0)
(-3.51577e-09 0 0)
(-3.35883e-09 0 0)
(-3.71956e-09 0 0)
(-3.19302e-09 0 0)
(-1.74471e-09 0 0)
(-2.28443e-09 0 0)
(-3.05625e-09 0 0)
(-2.65516e-09 0 0)
(-2.49645e-09 0 0)
(-2.10491e-09 0 0)
(-6.39199e-10 0 0)
(-2.00938e-10 0 0)
(3.33152e-11 0 0)
(6.67915e-10 0 0)
(-1.25459e-09 0 0)
(-1.628e-09 0 0)
(-6.75855e-11 0 0)
(-7.4999e-10 0 0)
(-1.83223e-09 0 0)
(-2.38543e-09 0 0)
(-1.19638e-09 0 0)
(-1.09515e-09 0 0)
(-2.30955e-09 0 0)
(-1.15375e-09 0 0)
(-1.09372e-10 0 0)
(-3.96487e-10 0 0)
(-1.21258e-09 0 0)
(-1.62651e-09 0 0)
(-1.42762e-09 0 0)
(-1.31894e-09 0 0)
(6.14818e-10 0 0)
(1.55654e-09 0 0)
(8.29682e-10 0 0)
(1.30314e-09 0 0)
(2.0766e-10 0 0)
(-2.87559e-10 0 0)
(-3.28324e-10 0 0)
(-1.1637e-09 0 0)
(-6.99236e-10 0 0)
(-2.29824e-10 0 0)
(1.73821e-10 0 0)
(1.13777e-09 0 0)
(4.03463e-10 0 0)
(-4.2543e-10 0 0)
(1.25635e-09 0 0)
(3.89167e-09 0 0)
(4.20403e-09 0 0)
(1.86845e-09 0 0)
(2.7348e-10 0 0)
(1.11311e-09 0 0)
(2.4059e-09 0 0)
(2.55295e-09 0 0)
(2.1264e-09 0 0)
(2.25378e-09 0 0)
(3.10081e-09 0 0)
(2.83416e-09 0 0)
(2.78203e-09 0 0)
(3.31613e-09 0 0)
(2.10139e-09 0 0)
(2.08934e-09 0 0)
(2.58547e-09 0 0)
(2.71912e-09 0 0)
(2.93973e-09 0 0)
(2.72639e-09 0 0)
(2.93717e-09 0 0)
(2.88402e-09 0 0)
(2.57433e-09 0 0)
(2.09491e-09 0 0)
(3.09347e-09 0 0)
(3.96568e-09 0 0)
(2.89492e-09 0 0)
(3.22484e-09 0 0)
(4.22347e-09 0 0)
(4.0011e-09 0 0)
(3.62144e-09 0 0)
(2.13385e-09 0 0)
(-5.38645e-10 0 0)
(-3.00054e-09 0 0)
(-3.67385e-09 0 0)
(-3.46114e-09 0 0)
(-3.06108e-09 0 0)
(-2.11595e-09 0 0)
(-4.74025e-10 0 0)
(6.62387e-10 0 0)
(9.2995e-10 0 0)
(3.54245e-10 0 0)
(-4.22461e-10 0 0)
(-1.12213e-10 0 0)
(1.00382e-10 0 0)
(-5.83042e-10 0 0)
(-1.70138e-09 0 0)
(-3.12218e-09 0 0)
(-3.21421e-09 0 0)
(-2.25435e-09 0 0)
(-1.51988e-09 0 0)
(-1.61572e-09 0 0)
(-2.76981e-09 0 0)
(-3.49048e-09 0 0)
(-3.35121e-09 0 0)
(-3.19438e-09 0 0)
(-3.56818e-09 0 0)
(-2.14977e-09 0 0)
(-3.49625e-11 0 0)
(8.45314e-10 0 0)
(9.3865e-10 0 0)
(1.35423e-09 0 0)
(1.83035e-09 0 0)
(3.46344e-10 0 0)
(-3.30031e-10 0 0)
(-2.06451e-10 0 0)
(6.17327e-11 0 0)
(4.7049e-10 0 0)
(-9.90215e-10 0 0)
(-2.0089e-09 0 0)
(-2.50759e-09 0 0)
(-2.14067e-09 0 0)
(-4.33433e-10 0 0)
(1.99692e-10 0 0)
(2.32093e-10 0 0)
(-6.27595e-11 0 0)
(-5.90494e-10 0 0)
(-8.22242e-10 0 0)
(-1.02369e-09 0 0)
(-1.36623e-09 0 0)
(-2.74713e-09 0 0)
(-3.91055e-09 0 0)
(-2.76441e-09 0 0)
(-1.1795e-09 0 0)
(-3.69199e-10 0 0)
(-1.2546e-09 0 0)
(-2.27408e-09 0 0)
(-1.39994e-09 0 0)
(2.98497e-10 0 0)
(2.92239e-09 0 0)
(3.8773e-09 0 0)
(2.52101e-09 0 0)
(2.08178e-09 0 0)
(2.37549e-09 0 0)
(1.6912e-09 0 0)
(9.05969e-10 0 0)
(1.02562e-09 0 0)
(1.51431e-09 0 0)
(1.00283e-09 0 0)
(1.45883e-09 0 0)
(2.5467e-09 0 0)
(3.08984e-09 0 0)
(3.47927e-09 0 0)
(2.75804e-09 0 0)
(1.73776e-09 0 0)
(1.35232e-10 0 0)
(-2.86716e-10 0 0)
(2.73193e-10 0 0)
(9.66968e-10 0 0)
(2.89299e-09 0 0)
(3.38116e-09 0 0)
(1.87424e-09 0 0)
(1.11481e-09 0 0)
(1.97338e-09 0 0)
(2.04177e-09 0 0)
(2.12805e-09 0 0)
(2.12492e-09 0 0)
(6.42056e-12 0 0)
(-9.12165e-10 0 0)
(9.8969e-11 0 0)
(-1.1027e-10 0 0)
(-2.49309e-10 0 0)
(-1.47452e-10 0 0)
(3.0507e-10 0 0)
(1.47735e-09 0 0)
(1.75987e-09 0 0)
(1.44757e-09 0 0)
(2.07405e-09 0 0)
(4.30357e-09 0 0)
(4.94977e-09 0 0)
(4.02179e-09 0 0)
(3.92692e-09 0 0)
(3.47859e-09 0 0)
(3.19602e-09 0 0)
(4.14741e-09 0 0)
(3.42305e-09 0 0)
(1.28323e-09 0 0)
(5.3881e-10 0 0)
(5.5183e-10 0 0)
(5.8054e-10 0 0)
(1.73321e-09 0 0)
(2.74611e-09 0 0)
(2.46627e-09 0 0)
(8.47202e-10 0 0)
(4.22013e-10 0 0)
(2.41142e-09 0 0)
(2.51715e-09 0 0)
(1.90511e-09 0 0)
(1.91841e-09 0 0)
(1.85538e-09 0 0)
(6.95714e-10 0 0)
(-3.55265e-11 0 0)
(1.72957e-09 0 0)
(3.39054e-09 0 0)
(3.84813e-09 0 0)
(3.17641e-09 0 0)
(2.71348e-09 0 0)
(2.77145e-09 0 0)
(1.97422e-09 0 0)
(1.40631e-09 0 0)
(1.06326e-09 0 0)
(5.1791e-11 0 0)
(-1.08453e-10 0 0)
(5.21991e-10 0 0)
(-7.98712e-11 0 0)
(-1.66535e-09 0 0)
(-3.10087e-09 0 0)
(-3.89384e-09 0 0)
(-3.00458e-09 0 0)
(-1.92774e-09 0 0)
(-1.88095e-09 0 0)
(-1.51517e-09 0 0)
(1.09098e-11 0 0)
(8.09734e-10 0 0)
(7.83872e-11 0 0)
(-2.39483e-10 0 0)
(-1.70576e-11 0 0)
(-2.09812e-11 0 0)
(-9.01654e-10 0 0)
(-1.79989e-09 0 0)
(-1.0449e-09 0 0)
(-3.77099e-10 0 0)
(-2.04909e-09 0 0)
(-4.35585e-09 0 0)
(-4.71681e-09 0 0)
(-4.06817e-09 0 0)
(-3.33239e-09 0 0)
(-2.63378e-09 0 0)
(-2.28113e-09 0 0)
(-6.86956e-10 0 0)
(1.9997e-09 0 0)
(3.38486e-09 0 0)
(2.67534e-09 0 0)
(1.7555e-09 0 0)
(1.85088e-09 0 0)
(9.94251e-10 0 0)
(-9.36598e-10 0 0)
(-1.10656e-09 0 0)
(2.11692e-10 0 0)
(5.92538e-10 0 0)
(2.62635e-11 0 0)
(-1.5699e-09 0 0)
(-3.52737e-09 0 0)
(-4.40384e-09 0 0)
(-4.93777e-09 0 0)
(-4.6801e-09 0 0)
(-3.25059e-09 0 0)
(-1.14704e-09 0 0)
(-1.84058e-10 0 0)
(-1.98054e-09 0 0)
(-3.3383e-09 0 0)
(-3.07103e-09 0 0)
(-2.85059e-09 0 0)
(-2.38623e-09 0 0)
(-2.83763e-09 0 0)
(-3.18971e-09 0 0)
(-2.84678e-09 0 0)
(-2.28033e-09 0 0)
(-1.61373e-09 0 0)
(-1.63464e-09 0 0)
(-5.59906e-10 0 0)
(-1.90197e-10 0 0)
(-3.14059e-10 0 0)
(9.50761e-10 0 0)
(1.33804e-09 0 0)
(8.9063e-10 0 0)
(1.66524e-09 0 0)
(2.04694e-09 0 0)
(-4.67022e-10 0 0)
(-2.48116e-09 0 0)
(-2.66641e-09 0 0)
(-2.09087e-09 0 0)
(-1.58934e-09 0 0)
(-2.3452e-09 0 0)
(-2.07275e-09 0 0)
(-1.64147e-09 0 0)
(-1.86168e-09 0 0)
(-1.53147e-09 0 0)
(-1.72712e-09 0 0)
(-1.47769e-09 0 0)
(-1.38993e-09 0 0)
(-2.73627e-09 0 0)
(-3.07649e-09 0 0)
(-3.21348e-09 0 0)
(-3.27624e-09 0 0)
(-1.99351e-09 0 0)
(-1.44422e-09 0 0)
(-1.34963e-09 0 0)
(-1.80415e-09 0 0)
(-2.2759e-09 0 0)
(-2.15755e-09 0 0)
(-1.49425e-09 0 0)
(-7.78075e-10 0 0)
(-2.86554e-10 0 0)
(-6.06022e-10 0 0)
(-2.99441e-09 0 0)
(-4.26736e-09 0 0)
(-3.98899e-09 0 0)
(-2.88957e-09 0 0)
(-1.14573e-09 0 0)
(-5.52404e-10 0 0)
(-8.96652e-10 0 0)
(-2.08269e-09 0 0)
(-1.87908e-09 0 0)
(-2.31995e-09 0 0)
(-3.06096e-09 0 0)
(-2.03028e-09 0 0)
(-1.56115e-09 0 0)
(-1.03233e-09 0 0)
(-1.06479e-09 0 0)
(-6.15223e-10 0 0)
(9.84454e-11 0 0)
(5.28045e-12 0 0)
(4.33879e-10 0 0)
(1.59178e-09 0 0)
(2.18136e-09 0 0)
(1.68234e-09 0 0)
(2.42375e-09 0 0)
(3.889e-09 0 0)
(3.44471e-09 0 0)
(1.94649e-09 0 0)
(5.77701e-10 0 0)
(-9.0705e-10 0 0)
(-2.19819e-09 0 0)
(-2.79794e-09 0 0)
(-1.67546e-09 0 0)
(1.88775e-10 0 0)
(7.72271e-10 0 0)
(5.62161e-12 0 0)
(-8.93243e-10 0 0)
(-1.83963e-09 0 0)
(-1.96678e-09 0 0)
(-1.14528e-09 0 0)
(-4.01821e-10 0 0)
(7.16834e-11 0 0)
(1.60923e-10 0 0)
(1.08906e-09 0 0)
(1.19997e-09 0 0)
(-3.98182e-10 0 0)
(-2.76702e-09 0 0)
(-2.89617e-09 0 0)
(-1.23066e-09 0 0)
(7.16283e-10 0 0)
(2.8582e-09 0 0)
(3.28116e-09 0 0)
(2.47802e-09 0 0)
(1.58849e-09 0 0)
(7.75912e-10 0 0)
(4.79928e-10 0 0)
(1.56529e-09 0 0)
(1.72059e-09 0 0)
(1.93841e-10 0 0)
(2.3676e-10 0 0)
(1.1242e-09 0 0)
(8.78464e-10 0 0)
(7.24361e-10 0 0)
(1.6114e-09 0 0)
(1.88152e-09 0 0)
(-1.97475e-10 0 0)
(-1.64573e-09 0 0)
(-2.16e-09 0 0)
(-2.08758e-09 0 0)
(-5.9021e-10 0 0)
(-2.78426e-10 0 0)
(-9.49358e-11 0 0)
(1.3124e-09 0 0)
(2.08882e-09 0 0)
(1.62941e-09 0 0)
(1.60918e-09 0 0)
(2.38044e-09 0 0)
(2.86446e-09 0 0)
(2.10043e-09 0 0)
(6.36997e-10 0 0)
(-1.65344e-10 0 0)
(-4.40015e-10 0 0)
(7.23394e-10 0 0)
(2.70251e-09 0 0)
(3.21347e-09 0 0)
(1.91926e-09 0 0)
(3.31513e-10 0 0)
(-4.12963e-10 0 0)
(-1.09309e-09 0 0)
(-5.98957e-10 0 0)
(-5.2421e-10 0 0)
(-7.88017e-10 0 0)
(9.96703e-10 0 0)
(3.88924e-09 0 0)
(4.89929e-09 0 0)
(2.76453e-09 0 0)
(3.69931e-10 0 0)
(-1.6072e-09 0 0)
(-1.14944e-09 0 0)
(-4.02053e-10 0 0)
(-3.03429e-10 0 0)
(1.7194e-09 0 0)
(2.16789e-09 0 0)
(1.42654e-09 0 0)
(9.28995e-10 0 0)
(8.50442e-10 0 0)
(7.72339e-10 0 0)
(4.47246e-10 0 0)
(1.10503e-09 0 0)
(-9.22059e-11 0 0)
(-8.6823e-10 0 0)
(9.90158e-10 0 0)
(1.73214e-09 0 0)
(1.52488e-09 0 0)
(2.01549e-09 0 0)
(9.14779e-10 0 0)
(3.1685e-10 0 0)
(5.79981e-10 0 0)
(-1.98265e-10 0 0)
(-1.06985e-09 0 0)
(-1.13499e-09 0 0)
(6.02084e-10 0 0)
(1.50874e-09 0 0)
(1.62555e-09 0 0)
(2.53448e-09 0 0)
(2.74429e-09 0 0)
(2.2111e-09 0 0)
(1.20156e-09 0 0)
(-1.08173e-09 0 0)
(-1.50715e-09 0 0)
(-3.42141e-10 0 0)
(-3.44076e-10 0 0)
(3.3827e-10 0 0)
(1.57427e-09 0 0)
(2.05046e-09 0 0)
(2.10765e-09 0 0)
(3.15948e-09 0 0)
(4.16396e-09 0 0)
(3.42346e-09 0 0)
(3.27083e-09 0 0)
(3.12587e-09 0 0)
(2.47826e-09 0 0)
(8.15079e-10 0 0)
(1.76044e-10 0 0)
(1.39312e-09 0 0)
(8.61345e-10 0 0)
(1.18842e-09 0 0)
(1.81524e-09 0 0)
(2.26607e-09 0 0)
(3.24804e-09 0 0)
(2.87145e-09 0 0)
(1.35816e-09 0 0)
(3.30941e-10 0 0)
(2.64718e-10 0 0)
(1.76047e-10 0 0)
(4.12347e-10 0 0)
(1.4673e-09 0 0)
(2.27254e-09 0 0)
(1.77693e-09 0 0)
(1.24874e-09 0 0)
(1.22037e-09 0 0)
(4.77035e-10 0 0)
(-6.9968e-10 0 0)
(-5.70764e-10 0 0)
(-2.91667e-10 0 0)
(-6.15903e-10 0 0)
(-1.36618e-09 0 0)
(-1.81172e-09 0 0)
(-7.86997e-10 0 0)
(8.93643e-10 0 0)
(6.79513e-10 0 0)
(-1.80169e-11 0 0)
(5.35066e-10 0 0)
(1.36804e-09 0 0)
(1.9188e-09 0 0)
(9.02898e-10 0 0)
(-6.36307e-10 0 0)
(-4.93513e-10 0 0)
(1.21725e-09 0 0)
(2.5152e-09 0 0)
(2.11605e-09 0 0)
(-4.96748e-10 0 0)
(-1.83632e-09 0 0)
(-1.94746e-09 0 0)
(-1.79734e-09 0 0)
(-3.14632e-10 0 0)
(1.74492e-09 0 0)
(2.16011e-09 0 0)
(2.44683e-09 0 0)
(2.43284e-09 0 0)
(2.59149e-09 0 0)
(4.24075e-09 0 0)
(3.13083e-09 0 0)
(5.06822e-10 0 0)
(-3.82207e-10 0 0)
(-5.9571e-10 0 0)
(-1.16795e-09 0 0)
(-1.7109e-10 0 0)
(1.35544e-09 0 0)
(1.81729e-09 0 0)
(1.6147e-09 0 0)
(5.79287e-10 0 0)
(-1.5287e-09 0 0)
(-2.48379e-09 0 0)
(-2.26096e-09 0 0)
(-1.21691e-09 0 0)
(3.87898e-10 0 0)
(8.48214e-10 0 0)
(1.06701e-09 0 0)
(4.27464e-10 0 0)
(-9.78105e-10 0 0)
(-1.50845e-09 0 0)
(-6.97015e-10 0 0)
(-7.50395e-10 0 0)
(-5.49458e-10 0 0)
(4.50016e-10 0 0)
(7.8886e-11 0 0)
(-1.8618e-09 0 0)
(-2.60383e-09 0 0)
(-2.09296e-09 0 0)
(-1.68647e-09 0 0)
(5.98519e-10 0 0)
(3.34337e-09 0 0)
(3.91146e-09 0 0)
(2.62071e-09 0 0)
(-5.27289e-10 0 0)
(-2.94632e-09 0 0)
(-1.74237e-09 0 0)
(-5.80373e-11 0 0)
(1.6775e-10 0 0)
(-2.02017e-10 0 0)
(4.37108e-11 0 0)
(7.78578e-10 0 0)
(1.10634e-09 0 0)
(1.21485e-09 0 0)
(7.11444e-10 0 0)
(-4.66521e-10 0 0)
(-5.20579e-10 0 0)
(-9.14444e-10 0 0)
(-6.48582e-10 0 0)
(-6.60512e-11 0 0)
(-4.63729e-10 0 0)
(-1.32684e-09 0 0)
(-1.42256e-09 0 0)
(-9.62356e-10 0 0)
(-3.11728e-10 0 0)
(7.84426e-11 0 0)
(-9.64064e-11 0 0)
(5.38357e-11 0 0)
(5.96296e-10 0 0)
(1.78808e-09 0 0)
(2.5105e-09 0 0)
(3.13555e-09 0 0)
(6.01848e-09 0 0)
(1.11751e-08 0 0)
(1.52253e-08 0 0)
(1.81e-08 0 0)
(2.02796e-08 0 0)
(2.42362e-08 0 0)
(3.21403e-08 0 0)
(4.11508e-08 0 0)
(5.19648e-08 0 0)
(6.7395e-08 0 0)
(8.57935e-08 0 0)
(1.06714e-07 0 0)
(1.3174e-07 0 0)
(1.62996e-07 0 0)
(2.002e-07 0 0)
(2.45144e-07 0 0)
(2.99154e-07 0 0)
(3.65409e-07 0 0)
(4.48768e-07 0 0)
(5.48766e-07 0 0)
(6.6958e-07 0 0)
(8.1531e-07 0 0)
(9.89756e-07 0 0)
(1.20039e-06 0 0)
(1.45469e-06 0 0)
(1.76067e-06 0 0)
(2.12847e-06 0 0)
(2.56988e-06 0 0)
(3.09885e-06 0 0)
(3.73428e-06 0 0)
(4.49681e-06 0 0)
(5.4096e-06 0 0)
(6.5025e-06 0 0)
(7.81024e-06 0 0)
(9.37401e-06 0 0)
(1.12427e-05 0 0)
(1.34742e-05 0 0)
(1.61375e-05 0 0)
(1.93136e-05 0 0)
(2.3099e-05 0 0)
(2.76076e-05 0 0)
(3.29738e-05 0 0)
(3.93567e-05 0 0)
(4.69435e-05 0 0)
(5.59554e-05 0 0)
(6.66526e-05 0 0)
(7.93413e-05 0 0)
(9.43817e-05 0 0)
(0.000112197 0 0)
(0.000133284 0 0)
(0.000158224 0 0)
(0.0001877 0 0)
(0.000222511 0 0)
(0.000263589 0 0)
(0.000312026 0 0)
(0.000369095 0 0)
(0.000436279 0 0)
(0.000515307 0 0)
(0.000608191 0 0)
(0.000717268 0 0)
(0.000845255 0 0)
(0.00099527 0 0)
(0.00118292 0 0)
(0.00141536 0 0)
(0.00168931 0 0)
(0.00201242 0 0)
(0.00239358 0 0)
(0.0028432 0 0)
(0.00337343 0 0)
(0.00399846 0 0)
(0.00473485 0 0)
(0.00560187 0 0)
(0.00662199 0 0)
(0.0078213 0 0)
(0.00923012 0 0)
(0.0108836 0 0)
(0.0128224 0 0)
(0.0150937 0 0)
(0.0177518 0 0)
(0.0208595 0 0)
(0.0244889 0 0)
(0.028723 0 0)
(0.033657 0 0)
(0.0394 0 0)
(0.0460768 0 0)
(0.0538295 0 0)
(0.0628203 0 0)
(0.0732335 0 0)
(0.085278 0 0)
(0.0991903 0 0)
(0.115238 0 0)
(0.133721 0 0)
(0.154978 0 0)
(0.179388 0 0)
(0.207376 0 0)
(0.239415 0 0)
(0.276029 0 0)
(0.317803 0 0)
(0.365381 0 0)
(0.419474 0 0)
(0.480863 0 0)
(0.550403 0 0)
(0.629026 0 0)
(0.717747 0 0)
(0.817663 0 0)
(0.92996 0 0)
(1.05591 0 0)
(1.19687 0 0)
(1.3543 0 0)
(1.52972 0 0)
(1.72476 0 0)
(1.94111 0 0)
(2.18054 0 0)
(2.44488 0 0)
(2.736 0 0)
(3.05584 0 0)
(3.40632 0 0)
(3.78941 0 0)
(4.20701 0 0)
(4.66104 0 0)
(5.1533 0 0)
(5.68551 0 0)
(6.25928 0 0)
(6.87603 0 0)
(7.53698 0 0)
(8.24311 0 0)
(8.99512 0 0)
(9.79337 0 0)
(10.6379 0 0)
(11.5282 0 0)
(12.4635 0 0)
(13.4425 0 0)
(14.4633 0 0)
(15.5236 0 0)
(16.6205 0 0)
(17.7508 0 0)
(18.9107 0 0)
(20.0962 0 0)
(21.3029 0 0)
(22.5265 0 0)
(23.7627 0 0)
(25.0077 0 0)
(26.2582 0 0)
(27.5115 0 0)
(28.7665 0 0)
(30.0227 0 0)
(31.2823 0 0)
(32.5456 0 0)
(33.8234 0 0)
(35.1064 0 0)
(36.4334 0 0)
(37.7479 0 0)
(39.1758 0 0)
(40.5221 0 0)
(42.1136 0 0)
(43.4838 0 0)
(45.2793 0 0)
(46.655 0 0)
(48.5994 0 0)
(49.9317 0 0)
(51.7796 0 0)
(52.6056 0 0)
(56.1094 0 0)
)
;

boundaryField
{
    sideLeft
    {
        type            symmetryPlane;
    }
    sideRight
    {
        type            zeroGradient;
    }
    topbottom
    {
        type            empty;
    }
    frontback
    {
        type            empty;
    }
}


// ************************************************************************* //
