/*--------------------------------*- C++ -*----------------------------------*\
| =========                 |                                                 |
| \\      /  F ield         | OpenFOAM: The Open Source CFD Toolbox           |
|  \\    /   O peration     | Version:  2.4.0                                 |
|   \\  /    A nd           | Web:      www.OpenFOAM.org                      |
|    \\/     M anipulation  |                                                 |
\*---------------------------------------------------------------------------*/
FoamFile
{
    version     2.0;
    format      ascii;
    class       volVectorField;
    location    "0.01";
    object      U.water;
}
// * * * * * * * * * * * * * * * * * * * * * * * * * * * * * * * * * * * * * //

dimensions      [0 1 -1 0 0 0 0];

internalField   nonuniform List<vector> 
1000
(
(5.25513e-09 0 0)
(3.07004e-08 0 0)
(5.78787e-08 0 0)
(7.82117e-08 0 0)
(1.01739e-07 0 0)
(1.20057e-07 0 0)
(1.3545e-07 0 0)
(1.48976e-07 0 0)
(1.5752e-07 0 0)
(1.56718e-07 0 0)
(1.46578e-07 0 0)
(1.2688e-07 0 0)
(9.47423e-08 0 0)
(4.92687e-08 0 0)
(-1.02212e-08 0 0)
(-8.313e-08 0 0)
(-1.71907e-07 0 0)
(-2.75001e-07 0 0)
(-3.87916e-07 0 0)
(-5.09926e-07 0 0)
(-6.34447e-07 0 0)
(-7.65523e-07 0 0)
(-9.00344e-07 0 0)
(-1.0285e-06 0 0)
(-1.15039e-06 0 0)
(-1.26223e-06 0 0)
(-1.36349e-06 0 0)
(-1.45204e-06 0 0)
(-1.5243e-06 0 0)
(-1.58036e-06 0 0)
(-1.61968e-06 0 0)
(-1.64148e-06 0 0)
(-1.64577e-06 0 0)
(-1.63542e-06 0 0)
(-1.61144e-06 0 0)
(-1.57171e-06 0 0)
(-1.51705e-06 0 0)
(-1.45273e-06 0 0)
(-1.3811e-06 0 0)
(-1.30182e-06 0 0)
(-1.21698e-06 0 0)
(-1.12838e-06 0 0)
(-1.03749e-06 0 0)
(-9.45885e-07 0 0)
(-8.54778e-07 0 0)
(-7.6503e-07 0 0)
(-6.77765e-07 0 0)
(-5.93897e-07 0 0)
(-5.14084e-07 0 0)
(-4.38682e-07 0 0)
(-3.6794e-07 0 0)
(-3.01078e-07 0 0)
(-2.39758e-07 0 0)
(-1.84426e-07 0 0)
(-1.34002e-07 0 0)
(-8.88952e-08 0 0)
(-4.77203e-08 0 0)
(-1.23627e-08 0 0)
(1.84006e-08 0 0)
(4.4609e-08 0 0)
(6.49355e-08 0 0)
(8.19946e-08 0 0)
(9.77052e-08 0 0)
(1.11607e-07 0 0)
(1.21428e-07 0 0)
(1.27161e-07 0 0)
(1.31444e-07 0 0)
(1.34702e-07 0 0)
(1.34774e-07 0 0)
(1.34345e-07 0 0)
(1.33997e-07 0 0)
(1.32074e-07 0 0)
(1.29436e-07 0 0)
(1.26886e-07 0 0)
(1.24396e-07 0 0)
(1.22658e-07 0 0)
(1.20003e-07 0 0)
(1.14104e-07 0 0)
(1.07648e-07 0 0)
(1.03748e-07 0 0)
(9.95105e-08 0 0)
(9.37406e-08 0 0)
(8.75478e-08 0 0)
(8.21044e-08 0 0)
(7.73783e-08 0 0)
(7.45877e-08 0 0)
(7.33878e-08 0 0)
(7.00105e-08 0 0)
(6.51581e-08 0 0)
(6.13342e-08 0 0)
(5.72039e-08 0 0)
(5.26796e-08 0 0)
(4.96135e-08 0 0)
(4.64106e-08 0 0)
(4.38268e-08 0 0)
(4.15622e-08 0 0)
(3.97188e-08 0 0)
(3.73438e-08 0 0)
(3.34702e-08 0 0)
(2.95287e-08 0 0)
(2.76789e-08 0 0)
(2.65916e-08 0 0)
(2.5118e-08 0 0)
(2.30154e-08 0 0)
(2.13367e-08 0 0)
(1.95246e-08 0 0)
(1.72376e-08 0 0)
(1.68726e-08 0 0)
(1.61635e-08 0 0)
(1.50557e-08 0 0)
(1.36971e-08 0 0)
(1.17187e-08 0 0)
(1.08694e-08 0 0)
(1.04035e-08 0 0)
(1.04652e-08 0 0)
(9.79765e-09 0 0)
(7.88646e-09 0 0)
(6.53074e-09 0 0)
(5.24654e-09 0 0)
(3.72217e-09 0 0)
(2.54779e-09 0 0)
(3.03362e-09 0 0)
(2.80704e-09 0 0)
(1.92245e-09 0 0)
(1.19042e-09 0 0)
(8.40374e-10 0 0)
(1.7368e-09 0 0)
(2.59218e-09 0 0)
(1.70405e-09 0 0)
(1.33565e-09 0 0)
(2.17608e-09 0 0)
(1.95326e-09 0 0)
(2.27232e-09 0 0)
(1.97145e-09 0 0)
(6.65988e-10 0 0)
(1.29268e-10 0 0)
(-3.7443e-10 0 0)
(8.76576e-10 0 0)
(2.28118e-09 0 0)
(1.64072e-09 0 0)
(6.89505e-10 0 0)
(2.67386e-10 0 0)
(1.25271e-09 0 0)
(1.12965e-09 0 0)
(8.58515e-10 0 0)
(2.13642e-09 0 0)
(2.76283e-09 0 0)
(5.01649e-09 0 0)
(5.91865e-09 0 0)
(3.69948e-09 0 0)
(2.04448e-09 0 0)
(1.89505e-09 0 0)
(2.30154e-09 0 0)
(2.2318e-10 0 0)
(-7.51746e-10 0 0)
(6.05557e-10 0 0)
(1.39568e-09 0 0)
(1.46872e-09 0 0)
(1.80418e-10 0 0)
(-1.68587e-09 0 0)
(-1.8477e-09 0 0)
(-8.80792e-10 0 0)
(3.0309e-10 0 0)
(1.64545e-09 0 0)
(1.96605e-09 0 0)
(1.88579e-09 0 0)
(3.42323e-09 0 0)
(5.66991e-09 0 0)
(5.57492e-09 0 0)
(3.83381e-09 0 0)
(3.51202e-09 0 0)
(3.05323e-09 0 0)
(5.33586e-10 0 0)
(-4.0547e-10 0 0)
(-1.85942e-10 0 0)
(-1.28205e-09 0 0)
(-2.12692e-09 0 0)
(-1.83514e-09 0 0)
(-1.4278e-09 0 0)
(-1.70934e-09 0 0)
(-1.78227e-09 0 0)
(-5.30801e-10 0 0)
(1.14485e-10 0 0)
(-3.71864e-10 0 0)
(-7.85968e-10 0 0)
(-1.93932e-09 0 0)
(-2.0928e-09 0 0)
(-2.58205e-09 0 0)
(-3.86098e-09 0 0)
(-3.51918e-09 0 0)
(-2.82734e-09 0 0)
(-3.52856e-09 0 0)
(-3.80607e-09 0 0)
(-2.0225e-09 0 0)
(-1.20242e-09 0 0)
(-1.85055e-09 0 0)
(-2.24543e-09 0 0)
(-1.86913e-09 0 0)
(-1.46906e-09 0 0)
(-2.17813e-09 0 0)
(-2.60667e-09 0 0)
(-1.62481e-09 0 0)
(-1.29603e-09 0 0)
(-3.03311e-09 0 0)
(-4.55123e-09 0 0)
(-4.42868e-09 0 0)
(-4.14548e-09 0 0)
(-3.30306e-09 0 0)
(-3.09575e-09 0 0)
(-2.41533e-09 0 0)
(6.07094e-10 0 0)
(1.24909e-09 0 0)
(4.97836e-10 0 0)
(7.51297e-10 0 0)
(6.64442e-10 0 0)
(7.98931e-10 0 0)
(-2.44885e-10 0 0)
(-9.05687e-10 0 0)
(-1.36271e-09 0 0)
(-1.34554e-09 0 0)
(-1.36294e-09 0 0)
(-2.29011e-09 0 0)
(-1.66404e-09 0 0)
(-1.38955e-09 0 0)
(-1.22168e-09 0 0)
(1.84578e-10 0 0)
(1.53944e-09 0 0)
(1.53143e-09 0 0)
(1.53967e-09 0 0)
(1.41132e-09 0 0)
(2.2016e-09 0 0)
(3.95266e-09 0 0)
(3.8915e-09 0 0)
(2.04909e-09 0 0)
(-5.40411e-10 0 0)
(-7.4272e-10 0 0)
(5.12724e-10 0 0)
(1.06251e-09 0 0)
(7.20434e-10 0 0)
(3.07582e-10 0 0)
(8.32588e-10 0 0)
(1.21839e-09 0 0)
(2.2289e-09 0 0)
(2.56029e-09 0 0)
(1.34003e-09 0 0)
(-1.72573e-10 0 0)
(-1.09022e-10 0 0)
(9.53553e-10 0 0)
(3.15544e-10 0 0)
(-6.91496e-10 0 0)
(-2.79159e-10 0 0)
(3.30088e-10 0 0)
(-1.64562e-10 0 0)
(-1.3992e-09 0 0)
(-2.93312e-09 0 0)
(-2.54875e-09 0 0)
(-1.33554e-09 0 0)
(-1.69627e-09 0 0)
(-1.36351e-09 0 0)
(8.07855e-10 0 0)
(2.11526e-09 0 0)
(1.87174e-09 0 0)
(8.73171e-10 0 0)
(-6.96167e-10 0 0)
(-1.68161e-09 0 0)
(-1.65523e-09 0 0)
(-1.10476e-09 0 0)
(-1.66512e-09 0 0)
(-2.98776e-09 0 0)
(-3.4765e-09 0 0)
(-3.96302e-09 0 0)
(-4.88245e-09 0 0)
(-4.66701e-09 0 0)
(-3.00076e-09 0 0)
(-1.46445e-09 0 0)
(-1.45871e-09 0 0)
(-1.73355e-09 0 0)
(-1.74504e-09 0 0)
(-2.02289e-09 0 0)
(-7.65908e-10 0 0)
(3.64251e-10 0 0)
(1.66496e-10 0 0)
(-9.58377e-10 0 0)
(-3.08171e-09 0 0)
(-4.88734e-09 0 0)
(-4.42503e-09 0 0)
(-2.94739e-09 0 0)
(-1.79853e-09 0 0)
(-5.78708e-11 0 0)
(-1.06872e-10 0 0)
(-3.72163e-10 0 0)
(-4.1048e-12 0 0)
(-1.61795e-09 0 0)
(-3.89083e-09 0 0)
(-5.50892e-09 0 0)
(-4.83112e-09 0 0)
(-3.11951e-09 0 0)
(-1.59542e-09 0 0)
(-1.31899e-09 0 0)
(-1.59548e-09 0 0)
(-6.50741e-10 0 0)
(-1.57621e-09 0 0)
(-1.90585e-09 0 0)
(5.84293e-10 0 0)
(1.99145e-09 0 0)
(1.67574e-09 0 0)
(1.01892e-09 0 0)
(1.08287e-09 0 0)
(-3.43363e-11 0 0)
(-1.19985e-09 0 0)
(-9.10803e-10 0 0)
(-1.39443e-10 0 0)
(9.3524e-10 0 0)
(1.39346e-09 0 0)
(6.75926e-10 0 0)
(-3.12466e-10 0 0)
(-5.40182e-10 0 0)
(3.40494e-10 0 0)
(8.24571e-10 0 0)
(9.32286e-10 0 0)
(1.06377e-09 0 0)
(7.43807e-10 0 0)
(1.10141e-09 0 0)
(4.10186e-10 0 0)
(-8.03313e-10 0 0)
(-8.87955e-10 0 0)
(1.66377e-10 0 0)
(4.07903e-10 0 0)
(-5.88845e-10 0 0)
(-6.8463e-10 0 0)
(-4.50438e-10 0 0)
(4.31834e-10 0 0)
(2.47587e-09 0 0)
(2.66863e-09 0 0)
(1.03808e-09 0 0)
(-1.09662e-09 0 0)
(-1.59457e-09 0 0)
(-1.92267e-09 0 0)
(-1.59338e-09 0 0)
(8.60721e-10 0 0)
(2.52669e-09 0 0)
(2.9105e-09 0 0)
(2.59616e-09 0 0)
(2.89538e-09 0 0)
(2.68011e-09 0 0)
(1.64073e-09 0 0)
(2.11207e-09 0 0)
(2.32462e-09 0 0)
(2.346e-09 0 0)
(1.49795e-09 0 0)
(1.33089e-09 0 0)
(2.39852e-09 0 0)
(2.58428e-09 0 0)
(3.77452e-09 0 0)
(3.97557e-09 0 0)
(3.80794e-09 0 0)
(3.58903e-09 0 0)
(3.4891e-09 0 0)
(4.13201e-09 0 0)
(3.95063e-09 0 0)
(3.42903e-09 0 0)
(3.03999e-09 0 0)
(2.23628e-09 0 0)
(7.79781e-10 0 0)
(-5.06815e-10 0 0)
(-7.13158e-10 0 0)
(-1.14068e-09 0 0)
(-1.20645e-09 0 0)
(-1.49874e-09 0 0)
(-1.96781e-09 0 0)
(-1.42803e-09 0 0)
(-1.03575e-09 0 0)
(-5.32058e-10 0 0)
(1.72179e-10 0 0)
(6.59362e-11 0 0)
(-5.76225e-10 0 0)
(-1.14699e-09 0 0)
(-9.55988e-10 0 0)
(-6.97747e-10 0 0)
(-1.54057e-09 0 0)
(-1.80665e-09 0 0)
(-1.87458e-09 0 0)
(-2.16869e-09 0 0)
(-2.07564e-09 0 0)
(-2.52328e-09 0 0)
(-2.60122e-09 0 0)
(-3.04977e-09 0 0)
(-4.51939e-09 0 0)
(-3.07887e-09 0 0)
(1.82294e-10 0 0)
(1.30029e-09 0 0)
(1.4844e-09 0 0)
(1.93597e-09 0 0)
(1.64254e-09 0 0)
(-6.15163e-10 0 0)
(-3.30465e-09 0 0)
(-3.15475e-09 0 0)
(-2.212e-09 0 0)
(-1.97685e-09 0 0)
(-1.66529e-09 0 0)
(-4.19331e-10 0 0)
(4.60775e-10 0 0)
(5.1193e-10 0 0)
(2.00668e-09 0 0)
(2.0201e-09 0 0)
(1.22191e-09 0 0)
(6.61083e-10 0 0)
(9.60646e-10 0 0)
(1.36282e-09 0 0)
(5.75237e-11 0 0)
(-1.70997e-09 0 0)
(-3.38827e-09 0 0)
(-3.53515e-09 0 0)
(-2.90095e-09 0 0)
(-2.53738e-09 0 0)
(-2.16955e-09 0 0)
(-1.8967e-09 0 0)
(-1.51392e-09 0 0)
(-1.62057e-10 0 0)
(1.95452e-09 0 0)
(3.51589e-09 0 0)
(3.61542e-09 0 0)
(3.22274e-09 0 0)
(2.27533e-09 0 0)
(9.7737e-10 0 0)
(1.62289e-10 0 0)
(-1.00215e-10 0 0)
(8.49808e-11 0 0)
(-6.17263e-10 0 0)
(-1.23748e-09 0 0)
(1.37167e-10 0 0)
(1.45747e-09 0 0)
(1.55347e-09 0 0)
(1.12555e-09 0 0)
(5.12382e-10 0 0)
(6.67454e-10 0 0)
(1.09452e-09 0 0)
(1.37072e-09 0 0)
(2.2477e-09 0 0)
(3.96085e-09 0 0)
(4.83459e-09 0 0)
(3.53691e-09 0 0)
(1.20008e-09 0 0)
(5.60705e-10 0 0)
(8.78523e-10 0 0)
(1.15785e-09 0 0)
(2.05319e-09 0 0)
(2.16426e-09 0 0)
(2.08303e-09 0 0)
(2.48798e-09 0 0)
(2.43353e-09 0 0)
(9.48781e-10 0 0)
(-2.65226e-10 0 0)
(-4.9056e-10 0 0)
(3.4793e-10 0 0)
(1.72286e-09 0 0)
(2.42903e-09 0 0)
(2.58723e-09 0 0)
(2.60013e-09 0 0)
(2.14988e-09 0 0)
(2.05575e-09 0 0)
(3.84438e-09 0 0)
(4.03526e-09 0 0)
(1.71577e-09 0 0)
(2.26294e-09 0 0)
(4.61239e-09 0 0)
(3.43942e-09 0 0)
(2.38884e-09 0 0)
(2.07586e-09 0 0)
(-2.38575e-10 0 0)
(-1.55609e-09 0 0)
(-5.64853e-10 0 0)
(3.85625e-10 0 0)
(9.17003e-10 0 0)
(1.31377e-09 0 0)
(2.38453e-09 0 0)
(3.86468e-09 0 0)
(3.86957e-09 0 0)
(3.87644e-09 0 0)
(4.29947e-09 0 0)
(4.3022e-09 0 0)
(2.1172e-09 0 0)
(1.17439e-10 0 0)
(1.25129e-09 0 0)
(3.40379e-09 0 0)
(4.25752e-09 0 0)
(2.71536e-09 0 0)
(1.64738e-09 0 0)
(2.23963e-09 0 0)
(3.48438e-09 0 0)
(3.41629e-09 0 0)
(2.74264e-09 0 0)
(3.06409e-09 0 0)
(2.43552e-09 0 0)
(1.20957e-09 0 0)
(-7.1089e-10 0 0)
(-3.21797e-09 0 0)
(-4.05175e-09 0 0)
(-3.69091e-09 0 0)
(-3.42687e-09 0 0)
(-2.44928e-09 0 0)
(-2.28238e-09 0 0)
(-2.66653e-09 0 0)
(-2.40545e-09 0 0)
(-3.18414e-09 0 0)
(-3.92771e-09 0 0)
(-3.1975e-09 0 0)
(-3.38094e-09 0 0)
(-2.85582e-09 0 0)
(-1.05019e-09 0 0)
(-1.08566e-09 0 0)
(-9.58784e-10 0 0)
(2.46641e-10 0 0)
(-1.14709e-10 0 0)
(-1.02614e-09 0 0)
(-1.95035e-09 0 0)
(-2.53714e-09 0 0)
(-1.58252e-09 0 0)
(-4.18368e-10 0 0)
(4.85896e-10 0 0)
(1.40573e-09 0 0)
(2.22121e-09 0 0)
(2.27902e-09 0 0)
(3.01331e-10 0 0)
(-1.53358e-09 0 0)
(-1.31888e-09 0 0)
(-8.47817e-10 0 0)
(-1.02652e-09 0 0)
(-1.63571e-09 0 0)
(-1.37515e-09 0 0)
(-1.09241e-09 0 0)
(-9.64289e-10 0 0)
(-1.6816e-09 0 0)
(-2.02818e-09 0 0)
(-2.25259e-09 0 0)
(-2.59536e-09 0 0)
(-2.07132e-09 0 0)
(-2.67824e-09 0 0)
(-3.20671e-09 0 0)
(-3.2743e-09 0 0)
(-3.2884e-09 0 0)
(-3.43448e-09 0 0)
(-4.0518e-09 0 0)
(-4.6253e-09 0 0)
(-3.66493e-09 0 0)
(-2.5226e-09 0 0)
(-1.08861e-09 0 0)
(-7.83875e-10 0 0)
(-1.16433e-09 0 0)
(-5.66216e-10 0 0)
(-7.20372e-10 0 0)
(-1.12697e-09 0 0)
(-9.59969e-10 0 0)
(7.10552e-11 0 0)
(2.13253e-09 0 0)
(2.40504e-09 0 0)
(4.11154e-10 0 0)
(-1.008e-09 0 0)
(-1.02756e-09 0 0)
(-1.69689e-09 0 0)
(-2.70376e-09 0 0)
(-2.82125e-09 0 0)
(-2.94875e-09 0 0)
(-1.76698e-09 0 0)
(-2.09895e-09 0 0)
(-3.17005e-09 0 0)
(-2.88714e-09 0 0)
(-3.00901e-09 0 0)
(-2.12918e-09 0 0)
(-1.60957e-09 0 0)
(-1.90123e-09 0 0)
(-1.47099e-09 0 0)
(-2.09474e-09 0 0)
(-2.68955e-09 0 0)
(-2.21827e-09 0 0)
(-1.51534e-09 0 0)
(-1.33856e-09 0 0)
(-6.80641e-10 0 0)
(4.66234e-10 0 0)
(3.71984e-10 0 0)
(-7.89558e-10 0 0)
(-9.61568e-10 0 0)
(6.30489e-12 0 0)
(3.16567e-11 0 0)
(-8.49478e-10 0 0)
(-2.1724e-09 0 0)
(-3.87298e-09 0 0)
(-4.16583e-09 0 0)
(-3.08245e-09 0 0)
(-1.81245e-09 0 0)
(-3.71239e-10 0 0)
(-9.75091e-10 0 0)
(-3.47865e-09 0 0)
(-5.04003e-09 0 0)
(-4.04634e-09 0 0)
(-3.91208e-09 0 0)
(-3.2689e-09 0 0)
(-2.46416e-09 0 0)
(-2.28965e-09 0 0)
(-1.27466e-09 0 0)
(-1.65477e-09 0 0)
(-2.39709e-09 0 0)
(-1.80359e-09 0 0)
(3.6061e-10 0 0)
(2.79191e-09 0 0)
(3.13121e-09 0 0)
(2.07177e-09 0 0)
(1.97685e-09 0 0)
(2.60486e-09 0 0)
(3.25315e-09 0 0)
(2.52072e-09 0 0)
(1.29296e-09 0 0)
(7.9939e-10 0 0)
(3.09569e-10 0 0)
(-2.58581e-10 0 0)
(-7.15429e-10 0 0)
(-1.04563e-09 0 0)
(-2.53182e-10 0 0)
(1.11873e-09 0 0)
(8.02904e-10 0 0)
(1.43177e-11 0 0)
(-1.03671e-09 0 0)
(-1.55001e-09 0 0)
(-7.97969e-10 0 0)
(3.90064e-10 0 0)
(1.16262e-09 0 0)
(-9.61233e-11 0 0)
(-1.64744e-09 0 0)
(-2.13776e-09 0 0)
(-2.87155e-09 0 0)
(-5.15142e-09 0 0)
(-5.56672e-09 0 0)
(-3.46005e-09 0 0)
(-2.09729e-09 0 0)
(-4.97896e-10 0 0)
(1.07768e-09 0 0)
(1.75099e-09 0 0)
(3.0609e-09 0 0)
(4.09898e-09 0 0)
(2.79413e-09 0 0)
(1.63231e-09 0 0)
(2.15129e-09 0 0)
(1.91569e-09 0 0)
(8.63743e-10 0 0)
(8.87559e-10 0 0)
(1.84111e-09 0 0)
(1.62527e-09 0 0)
(1.68365e-09 0 0)
(3.06387e-09 0 0)
(3.29737e-09 0 0)
(2.74167e-09 0 0)
(2.10058e-09 0 0)
(1.10929e-09 0 0)
(9.38441e-11 0 0)
(-7.18903e-10 0 0)
(-1.0756e-09 0 0)
(-1.42899e-09 0 0)
(-1.09805e-09 0 0)
(3.81888e-11 0 0)
(2.45802e-09 0 0)
(4.56947e-09 0 0)
(5.08993e-09 0 0)
(3.96273e-09 0 0)
(1.82423e-09 0 0)
(1.91861e-10 0 0)
(1.36113e-09 0 0)
(3.20597e-09 0 0)
(2.5604e-09 0 0)
(1.49709e-09 0 0)
(1.60202e-09 0 0)
(1.27489e-09 0 0)
(-3.8545e-10 0 0)
(-6.66256e-10 0 0)
(-3.07463e-10 0 0)
(-6.8661e-10 0 0)
(-8.45711e-10 0 0)
(1.72531e-10 0 0)
(2.23578e-09 0 0)
(2.83735e-09 0 0)
(1.12835e-09 0 0)
(-1.30826e-09 0 0)
(-2.2588e-09 0 0)
(-1.16268e-09 0 0)
(-2.89348e-11 0 0)
(1.59161e-10 0 0)
(8.23058e-11 0 0)
(-3.61983e-10 0 0)
(1.83262e-10 0 0)
(1.71315e-09 0 0)
(3.24287e-09 0 0)
(4.34404e-09 0 0)
(3.93317e-09 0 0)
(2.58904e-09 0 0)
(1.46525e-09 0 0)
(8.97383e-10 0 0)
(1.53419e-10 0 0)
(2.48406e-11 0 0)
(-8.24293e-11 0 0)
(2.08207e-10 0 0)
(2.20548e-10 0 0)
(6.4529e-10 0 0)
(1.17576e-09 0 0)
(-3.43859e-11 0 0)
(-2.13162e-09 0 0)
(-2.23394e-09 0 0)
(-7.35269e-10 0 0)
(4.79134e-10 0 0)
(1.10498e-09 0 0)
(7.49087e-10 0 0)
(1.76681e-09 0 0)
(2.79994e-09 0 0)
(2.11623e-09 0 0)
(2.76547e-10 0 0)
(-2.49766e-10 0 0)
(1.85327e-11 0 0)
(-2.22373e-10 0 0)
(-5.64121e-10 0 0)
(-1.27341e-09 0 0)
(-8.15591e-10 0 0)
(2.08508e-10 0 0)
(2.22098e-10 0 0)
(7.43181e-10 0 0)
(-5.26873e-10 0 0)
(-1.35509e-09 0 0)
(8.77603e-10 0 0)
(3.362e-09 0 0)
(4.11256e-09 0 0)
(3.65236e-09 0 0)
(3.4658e-09 0 0)
(2.93909e-09 0 0)
(2.33143e-09 0 0)
(7.27655e-10 0 0)
(1.75562e-09 0 0)
(3.89435e-09 0 0)
(3.3412e-09 0 0)
(1.99628e-09 0 0)
(1.82979e-09 0 0)
(1.41005e-09 0 0)
(8.34236e-10 0 0)
(1.43257e-09 0 0)
(2.24583e-09 0 0)
(2.60161e-09 0 0)
(1.83837e-09 0 0)
(1.95126e-09 0 0)
(2.21462e-09 0 0)
(2.30745e-09 0 0)
(1.80581e-09 0 0)
(3.69486e-10 0 0)
(-3.15879e-10 0 0)
(-5.48371e-10 0 0)
(-6.31536e-10 0 0)
(-3.60164e-10 0 0)
(3.73065e-10 0 0)
(1.17752e-09 0 0)
(1.48623e-09 0 0)
(7.93934e-10 0 0)
(-4.27293e-10 0 0)
(-1.29177e-09 0 0)
(-1.43565e-09 0 0)
(-6.01519e-10 0 0)
(1.59503e-10 0 0)
(1.00016e-09 0 0)
(2.1372e-09 0 0)
(2.40152e-09 0 0)
(1.9013e-09 0 0)
(7.73144e-11 0 0)
(-6.83993e-10 0 0)
(-5.05966e-10 0 0)
(-8.76526e-10 0 0)
(-3.05251e-10 0 0)
(4.32065e-10 0 0)
(-1.49326e-10 0 0)
(-1.04586e-09 0 0)
(-1.47525e-09 0 0)
(-8.98352e-10 0 0)
(7.82793e-10 0 0)
(1.21651e-09 0 0)
(1.0615e-09 0 0)
(1.01392e-09 0 0)
(1.47009e-09 0 0)
(2.63885e-09 0 0)
(3.15215e-09 0 0)
(4.43095e-09 0 0)
(4.74893e-09 0 0)
(3.72324e-09 0 0)
(2.52214e-09 0 0)
(8.09928e-11 0 0)
(-2.21736e-09 0 0)
(-2.20127e-09 0 0)
(4.04776e-10 0 0)
(2.69056e-09 0 0)
(2.73172e-09 0 0)
(1.91949e-09 0 0)
(1.30075e-09 0 0)
(8.58562e-10 0 0)
(1.81502e-10 0 0)
(-6.89739e-10 0 0)
(-1.44764e-09 0 0)
(-1.30741e-09 0 0)
(-1.25563e-09 0 0)
(-2.36947e-09 0 0)
(-4.22324e-09 0 0)
(-3.9048e-09 0 0)
(-1.04204e-09 0 0)
(3.67397e-10 0 0)
(9.63057e-10 0 0)
(1.75505e-09 0 0)
(1.96667e-09 0 0)
(1.09418e-09 0 0)
(-1.52739e-09 0 0)
(-3.0604e-09 0 0)
(-2.24412e-09 0 0)
(-1.76254e-09 0 0)
(-1.83081e-09 0 0)
(-1.90704e-09 0 0)
(-1.21969e-09 0 0)
(8.50313e-10 0 0)
(8.96185e-10 0 0)
(-8.22417e-10 0 0)
(-6.92076e-10 0 0)
(-1.02182e-09 0 0)
(-1.62345e-09 0 0)
(-1.81376e-09 0 0)
(-1.28892e-09 0 0)
(-7.64032e-10 0 0)
(-1.38573e-09 0 0)
(-1.6953e-09 0 0)
(-1.74987e-09 0 0)
(-7.96264e-10 0 0)
(1.0483e-09 0 0)
(1.15665e-09 0 0)
(1.07883e-09 0 0)
(2.24714e-09 0 0)
(2.58985e-09 0 0)
(2.05143e-09 0 0)
(2.85366e-09 0 0)
(4.36405e-09 0 0)
(5.80588e-09 0 0)
(8.32307e-09 0 0)
(1.12551e-08 0 0)
(1.53468e-08 0 0)
(2.00886e-08 0 0)
(2.58204e-08 0 0)
(3.33754e-08 0 0)
(4.26977e-08 0 0)
(5.40858e-08 0 0)
(6.87748e-08 0 0)
(8.61658e-08 0 0)
(1.06292e-07 0 0)
(1.29989e-07 0 0)
(1.5945e-07 0 0)
(1.97825e-07 0 0)
(2.43157e-07 0 0)
(2.963e-07 0 0)
(3.62957e-07 0 0)
(4.45483e-07 0 0)
(5.44571e-07 0 0)
(6.6507e-07 0 0)
(8.10393e-07 0 0)
(9.84315e-07 0 0)
(1.19434e-06 0 0)
(1.44798e-06 0 0)
(1.75323e-06 0 0)
(2.12024e-06 0 0)
(2.56083e-06 0 0)
(3.08897e-06 0 0)
(3.72362e-06 0 0)
(4.48546e-06 0 0)
(5.39773e-06 0 0)
(6.4904e-06 0 0)
(7.79832e-06 0 0)
(9.36289e-06 0 0)
(1.12332e-05 0 0)
(1.34676e-05 0 0)
(1.61352e-05 0 0)
(1.93179e-05 0 0)
(2.31126e-05 0 0)
(2.7634e-05 0 0)
(3.30178e-05 0 0)
(3.94242e-05 0 0)
(4.70423e-05 0 0)
(5.60951e-05 0 0)
(6.68453e-05 0 0)
(7.96023e-05 0 0)
(9.47297e-05 0 0)
(0.000112655 0 0)
(0.00013388 0 0)
(0.000158992 0 0)
(0.000188681 0 0)
(0.000223752 0 0)
(0.000265145 0 0)
(0.00031396 0 0)
(0.000371476 0 0)
(0.000439179 0 0)
(0.0005188 0 0)
(0.00061234 0 0)
(0.000722118 0 0)
(0.000850808 0 0)
(0.00100146 0 0)
(0.00119036 0 0)
(0.00142472 0 0)
(0.00170069 0 0)
(0.00202601 0 0)
(0.00240966 0 0)
(0.00286214 0 0)
(0.00339569 0 0)
(0.00402459 0 0)
(0.00476548 0 0)
(0.00563776 0 0)
(0.006664 0 0)
(0.00787043 0 0)
(0.00928751 0 0)
(0.0109506 0 0)
(0.0129005 0 0)
(0.0151846 0 0)
(0.0178575 0 0)
(0.0209822 0 0)
(0.0246312 0 0)
(0.0288878 0 0)
(0.0338476 0 0)
(0.03962 0 0)
(0.0463302 0 0)
(0.0541211 0 0)
(0.0631552 0 0)
(0.0736173 0 0)
(0.0857171 0 0)
(0.0996916 0 0)
(0.115809 0 0)
(0.13437 0 0)
(0.155715 0 0)
(0.180223 0 0)
(0.208319 0 0)
(0.240477 0 0)
(0.277223 0 0)
(0.319141 0 0)
(0.366878 0 0)
(0.421143 0 0)
(0.482719 0 0)
(0.552461 0 0)
(0.631302 0 0)
(0.720257 0 0)
(0.820424 0 0)
(0.932987 0 0)
(1.05922 0 0)
(1.20048 0 0)
(1.35823 0 0)
(1.53398 0 0)
(1.72938 0 0)
(1.9461 0 0)
(2.18592 0 0)
(2.45066 0 0)
(2.74222 0 0)
(3.06252 0 0)
(3.41349 0 0)
(3.79709 0 0)
(4.21525 0 0)
(4.66987 0 0)
(5.16277 0 0)
(5.69566 0 0)
(6.27016 0 0)
(6.88767 0 0)
(7.54941 0 0)
(8.25636 0 0)
(9.00919 0 0)
(9.80824 0 0)
(10.6535 0 0)
(11.5445 0 0)
(12.4803 0 0)
(13.4595 0 0)
(14.4803 0 0)
(15.5402 0 0)
(16.6363 0 0)
(17.7654 0 0)
(18.9235 0 0)
(20.1066 0 0)
(21.3105 0 0)
(22.5307 0 0)
(23.7633 0 0)
(25.0043 0 0)
(26.2507 0 0)
(27.5 0 0)
(28.7513 0 0)
(30.0044 0 0)
(31.2615 0 0)
(32.5234 0 0)
(33.8002 0 0)
(35.0841 0 0)
(36.4116 0 0)
(37.729 0 0)
(39.1584 0 0)
(40.5079 0 0)
(42.1022 0 0)
(43.473 0 0)
(45.2677 0 0)
(46.6452 0 0)
(48.5897 0 0)
(49.8876 0 0)
(51.7365 0 0)
(52.6308 0 0)
(55.9545 0 0)
)
;

boundaryField
{
    sideLeft
    {
        type            symmetryPlane;
    }
    sideRight
    {
        type            zeroGradient;
    }
    topbottom
    {
        type            empty;
    }
    frontback
    {
        type            empty;
    }
}


// ************************************************************************* //
