/*--------------------------------*- C++ -*----------------------------------*\
| =========                 |                                                 |
| \\      /  F ield         | OpenFOAM: The Open Source CFD Toolbox           |
|  \\    /   O peration     | Version:  2.4.0                                 |
|   \\  /    A nd           | Web:      www.OpenFOAM.org                      |
|    \\/     M anipulation  |                                                 |
\*---------------------------------------------------------------------------*/
FoamFile
{
    version     2.0;
    format      ascii;
    class       volVectorField;
    location    "0.01";
    object      U.waterMean;
}
// * * * * * * * * * * * * * * * * * * * * * * * * * * * * * * * * * * * * * //

dimensions      [0 1 -1 0 0 0 0];

internalField   nonuniform List<vector> 
1000
(
(-5.39139e-06 0 0)
(-9.58894e-06 0 0)
(-7.50482e-06 0 0)
(-5.93807e-06 0 0)
(-4.74949e-06 0 0)
(-3.84857e-06 0 0)
(-3.16414e-06 0 0)
(-2.64289e-06 0 0)
(-2.2447e-06 0 0)
(-1.94203e-06 0 0)
(-1.71235e-06 0 0)
(-1.53619e-06 0 0)
(-1.4013e-06 0 0)
(-1.29827e-06 0 0)
(-1.21821e-06 0 0)
(-1.15337e-06 0 0)
(-1.10183e-06 0 0)
(-1.05979e-06 0 0)
(-1.02222e-06 0 0)
(-9.87988e-07 0 0)
(-9.52346e-07 0 0)
(-9.19279e-07 0 0)
(-8.88272e-07 0 0)
(-8.53324e-07 0 0)
(-8.16606e-07 0 0)
(-7.77549e-07 0 0)
(-7.37388e-07 0 0)
(-6.96415e-07 0 0)
(-6.53508e-07 0 0)
(-6.09505e-07 0 0)
(-5.65062e-07 0 0)
(-5.20361e-07 0 0)
(-4.75273e-07 0 0)
(-4.30638e-07 0 0)
(-3.87059e-07 0 0)
(-3.44419e-07 0 0)
(-3.02818e-07 0 0)
(-2.63284e-07 0 0)
(-2.26138e-07 0 0)
(-1.90879e-07 0 0)
(-1.57682e-07 0 0)
(-1.26597e-07 0 0)
(-9.78629e-08 0 0)
(-7.14823e-08 0 0)
(-4.75343e-08 0 0)
(-2.58718e-08 0 0)
(-6.7131e-09 0 0)
(1.00592e-08 0 0)
(2.50156e-08 0 0)
(3.80632e-08 0 0)
(4.92782e-08 0 0)
(5.85477e-08 0 0)
(6.58657e-08 0 0)
(7.22957e-08 0 0)
(7.80398e-08 0 0)
(8.24386e-08 0 0)
(8.5792e-08 0 0)
(8.80158e-08 0 0)
(8.90297e-08 0 0)
(8.89792e-08 0 0)
(8.82874e-08 0 0)
(8.74237e-08 0 0)
(8.58298e-08 0 0)
(8.41113e-08 0 0)
(8.24432e-08 0 0)
(7.99358e-08 0 0)
(7.69743e-08 0 0)
(7.42106e-08 0 0)
(7.13105e-08 0 0)
(6.82835e-08 0 0)
(6.52958e-08 0 0)
(6.22509e-08 0 0)
(5.93579e-08 0 0)
(5.66681e-08 0 0)
(5.41878e-08 0 0)
(5.18743e-08 0 0)
(4.9013e-08 0 0)
(4.60361e-08 0 0)
(4.3602e-08 0 0)
(4.11426e-08 0 0)
(3.87334e-08 0 0)
(3.63525e-08 0 0)
(3.4044e-08 0 0)
(3.20241e-08 0 0)
(2.99356e-08 0 0)
(2.79077e-08 0 0)
(2.57301e-08 0 0)
(2.32817e-08 0 0)
(2.09798e-08 0 0)
(1.87863e-08 0 0)
(1.68215e-08 0 0)
(1.52e-08 0 0)
(1.41944e-08 0 0)
(1.31711e-08 0 0)
(1.18542e-08 0 0)
(1.12678e-08 0 0)
(1.11782e-08 0 0)
(1.05952e-08 0 0)
(9.70845e-09 0 0)
(8.6963e-09 0 0)
(8.15758e-09 0 0)
(7.37897e-09 0 0)
(6.15793e-09 0 0)
(4.73895e-09 0 0)
(3.69745e-09 0 0)
(3.38254e-09 0 0)
(2.88791e-09 0 0)
(2.24986e-09 0 0)
(1.53151e-09 0 0)
(1.58804e-09 0 0)
(1.9319e-09 0 0)
(1.76924e-09 0 0)
(1.7259e-09 0 0)
(1.81735e-09 0 0)
(2.09598e-09 0 0)
(2.32601e-09 0 0)
(2.11965e-09 0 0)
(2.36663e-09 0 0)
(2.39667e-09 0 0)
(2.13322e-09 0 0)
(2.07192e-09 0 0)
(1.97626e-09 0 0)
(1.56799e-09 0 0)
(1.45497e-09 0 0)
(1.52253e-09 0 0)
(1.23269e-09 0 0)
(1.25459e-09 0 0)
(1.41005e-09 0 0)
(1.55676e-09 0 0)
(1.86275e-09 0 0)
(2.07111e-09 0 0)
(2.26091e-09 0 0)
(2.4916e-09 0 0)
(2.76546e-09 0 0)
(2.85842e-09 0 0)
(2.49665e-09 0 0)
(1.75441e-09 0 0)
(1.47869e-09 0 0)
(1.31939e-09 0 0)
(7.18958e-10 0 0)
(3.30724e-10 0 0)
(2.63939e-10 0 0)
(5.45003e-10 0 0)
(5.48962e-10 0 0)
(1.46804e-10 0 0)
(3.85867e-10 0 0)
(3.5738e-10 0 0)
(6.2974e-10 0 0)
(1.00496e-09 0 0)
(4.883e-10 0 0)
(4.67369e-10 0 0)
(5.42648e-10 0 0)
(4.53358e-10 0 0)
(1.52579e-10 0 0)
(-7.71498e-11 0 0)
(-3.08703e-10 0 0)
(4.47476e-12 0 0)
(8.0041e-11 0 0)
(-2.34203e-10 0 0)
(-1.62531e-10 0 0)
(-1.53055e-10 0 0)
(-7.63687e-10 0 0)
(-7.31233e-10 0 0)
(6.26123e-12 0 0)
(3.61551e-11 0 0)
(-8.70548e-11 0 0)
(2.14982e-10 0 0)
(3.44238e-10 0 0)
(-2.31831e-10 0 0)
(-9.97825e-10 0 0)
(-1.46854e-09 0 0)
(-1.51839e-09 0 0)
(-1.68233e-09 0 0)
(-1.3313e-09 0 0)
(-7.40195e-10 0 0)
(-5.99872e-10 0 0)
(-1.14122e-09 0 0)
(-9.90973e-10 0 0)
(-3.31098e-10 0 0)
(-3.98569e-10 0 0)
(-6.09337e-10 0 0)
(-5.78266e-10 0 0)
(-4.90579e-10 0 0)
(-6.40275e-10 0 0)
(-6.68617e-10 0 0)
(-9.51886e-10 0 0)
(-8.13235e-10 0 0)
(-7.31568e-10 0 0)
(-1.07033e-09 0 0)
(-9.70717e-10 0 0)
(-5.98205e-10 0 0)
(-4.80312e-10 0 0)
(-3.64944e-10 0 0)
(8.82343e-11 0 0)
(2.87412e-10 0 0)
(3.42599e-11 0 0)
(-3.72179e-10 0 0)
(-5.5e-10 0 0)
(-1.0126e-10 0 0)
(4.39459e-10 0 0)
(4.41227e-10 0 0)
(5.61347e-10 0 0)
(6.19513e-10 0 0)
(-1.36199e-10 0 0)
(-9.30253e-10 0 0)
(-1.10221e-09 0 0)
(-1.00598e-09 0 0)
(-9.82446e-10 0 0)
(-1.36989e-09 0 0)
(-1.40314e-09 0 0)
(-7.33919e-10 0 0)
(-2.91649e-10 0 0)
(-3.29766e-10 0 0)
(-5.08716e-10 0 0)
(-1.38937e-10 0 0)
(5.67285e-11 0 0)
(-9.87161e-10 0 0)
(-8.66197e-10 0 0)
(-5.10789e-10 0 0)
(-5.65787e-10 0 0)
(-2.43925e-10 0 0)
(-3.09215e-10 0 0)
(2.1665e-11 0 0)
(1.73585e-10 0 0)
(2.6639e-10 0 0)
(9.03938e-10 0 0)
(1.21793e-09 0 0)
(7.66852e-10 0 0)
(4.31426e-10 0 0)
(1.17774e-10 0 0)
(-9.62803e-11 0 0)
(-9.04035e-11 0 0)
(1.25607e-10 0 0)
(4.28978e-10 0 0)
(-5.47219e-11 0 0)
(-4.28218e-10 0 0)
(-6.69045e-10 0 0)
(-5.01401e-10 0 0)
(-6.31309e-11 0 0)
(2.40681e-10 0 0)
(3.44704e-10 0 0)
(1.06787e-10 0 0)
(3.55707e-10 0 0)
(4.69286e-10 0 0)
(2.09773e-10 0 0)
(-6.43488e-11 0 0)
(3.13085e-10 0 0)
(8.16831e-10 0 0)
(4.15835e-10 0 0)
(-1.71058e-10 0 0)
(-2.8374e-10 0 0)
(-3.25452e-10 0 0)
(-5.36766e-11 0 0)
(-1.30994e-10 0 0)
(-4.15404e-10 0 0)
(-2.32466e-10 0 0)
(-2.32508e-10 0 0)
(-3.67418e-10 0 0)
(-1.40044e-10 0 0)
(4.83468e-10 0 0)
(1.38854e-09 0 0)
(1.95584e-09 0 0)
(1.76874e-09 0 0)
(1.56629e-09 0 0)
(1.19403e-09 0 0)
(5.94738e-10 0 0)
(2.94287e-10 0 0)
(-5.92958e-11 0 0)
(-7.7362e-10 0 0)
(-1.23888e-09 0 0)
(-1.12036e-09 0 0)
(-3.53832e-10 0 0)
(2.72547e-10 0 0)
(3.37241e-10 0 0)
(2.36396e-11 0 0)
(-5.40493e-10 0 0)
(-7.92966e-10 0 0)
(-7.96634e-10 0 0)
(-7.05933e-10 0 0)
(-4.22551e-10 0 0)
(-4.85472e-10 0 0)
(-1.03497e-09 0 0)
(-1.64478e-09 0 0)
(-1.92433e-09 0 0)
(-2.1317e-09 0 0)
(-2.24909e-09 0 0)
(-2.38268e-09 0 0)
(-2.82858e-09 0 0)
(-3.27123e-09 0 0)
(-3.67182e-09 0 0)
(-3.76865e-09 0 0)
(-3.45432e-09 0 0)
(-3.38593e-09 0 0)
(-3.21399e-09 0 0)
(-3.13521e-09 0 0)
(-2.90566e-09 0 0)
(-2.41194e-09 0 0)
(-1.90318e-09 0 0)
(-1.53645e-09 0 0)
(-1.77885e-09 0 0)
(-1.54634e-09 0 0)
(-1.31884e-09 0 0)
(-1.39763e-09 0 0)
(-9.52021e-10 0 0)
(-6.12063e-10 0 0)
(-5.50258e-11 0 0)
(1.65527e-10 0 0)
(1.0073e-10 0 0)
(-6.30639e-11 0 0)
(-5.76772e-10 0 0)
(-3.50081e-10 0 0)
(2.36888e-10 0 0)
(8.15184e-10 0 0)
(1.24931e-09 0 0)
(1.31563e-09 0 0)
(1.12933e-09 0 0)
(9.6381e-10 0 0)
(9.09086e-10 0 0)
(1.1135e-09 0 0)
(1.39945e-09 0 0)
(1.50543e-09 0 0)
(1.85269e-09 0 0)
(2.26564e-09 0 0)
(2.00702e-09 0 0)
(1.77967e-09 0 0)
(1.91704e-09 0 0)
(2.09494e-09 0 0)
(2.11515e-09 0 0)
(1.90175e-09 0 0)
(1.46143e-09 0 0)
(1.25739e-09 0 0)
(1.48982e-09 0 0)
(1.44436e-09 0 0)
(1.56193e-09 0 0)
(1.83412e-09 0 0)
(1.31042e-09 0 0)
(7.20837e-10 0 0)
(2.06233e-10 0 0)
(1.8073e-10 0 0)
(6.95093e-10 0 0)
(8.62655e-10 0 0)
(5.31775e-10 0 0)
(5.36323e-10 0 0)
(1.13348e-09 0 0)
(9.97854e-10 0 0)
(6.57543e-10 0 0)
(7.60221e-10 0 0)
(3.73628e-10 0 0)
(5.82023e-11 0 0)
(-3.50431e-10 0 0)
(-8.41331e-10 0 0)
(-6.54933e-10 0 0)
(-1.16751e-10 0 0)
(6.40486e-10 0 0)
(3.00797e-10 0 0)
(2.47575e-12 0 0)
(9.89833e-11 0 0)
(-1.76678e-10 0 0)
(3.33499e-11 0 0)
(4.98172e-10 0 0)
(6.16026e-10 0 0)
(3.1817e-10 0 0)
(8.9245e-11 0 0)
(-1.94613e-10 0 0)
(-3.60256e-11 0 0)
(1.24222e-10 0 0)
(-2.26564e-10 0 0)
(-1.82683e-10 0 0)
(-3.30616e-10 0 0)
(-7.95216e-10 0 0)
(-6.86033e-10 0 0)
(-3.08944e-10 0 0)
(-3.50083e-10 0 0)
(8.27311e-11 0 0)
(4.01691e-10 0 0)
(1.73453e-10 0 0)
(4.64276e-10 0 0)
(6.94493e-10 0 0)
(9.78523e-10 0 0)
(1.25798e-09 0 0)
(8.75505e-10 0 0)
(3.38214e-10 0 0)
(3.09455e-10 0 0)
(6.01886e-10 0 0)
(4.75425e-10 0 0)
(2.10922e-10 0 0)
(5.08703e-10 0 0)
(7.50514e-10 0 0)
(7.0198e-10 0 0)
(7.04077e-10 0 0)
(7.39932e-10 0 0)
(5.3326e-10 0 0)
(8.0581e-11 0 0)
(-3.45499e-10 0 0)
(-9.89333e-10 0 0)
(-1.25433e-09 0 0)
(-1.34481e-09 0 0)
(-1.51345e-09 0 0)
(-1.64995e-09 0 0)
(-1.91875e-09 0 0)
(-1.83847e-09 0 0)
(-1.70715e-09 0 0)
(-1.18733e-09 0 0)
(-4.88743e-10 0 0)
(-5.1419e-10 0 0)
(-6.7296e-10 0 0)
(-8.97342e-10 0 0)
(-8.67926e-10 0 0)
(-8.14303e-10 0 0)
(-1.16401e-09 0 0)
(-1.11433e-09 0 0)
(-9.20573e-10 0 0)
(-8.75927e-10 0 0)
(-7.4508e-10 0 0)
(-1.07332e-09 0 0)
(-1.79504e-09 0 0)
(-2.14762e-09 0 0)
(-1.76472e-09 0 0)
(-8.40924e-10 0 0)
(-1.28706e-10 0 0)
(-7.81087e-11 0 0)
(-3.85014e-10 0 0)
(-4.21896e-10 0 0)
(-1.89647e-10 0 0)
(-5.33982e-10 0 0)
(-5.85847e-10 0 0)
(-3.62134e-10 0 0)
(-4.60489e-10 0 0)
(-5.5868e-10 0 0)
(-6.6654e-10 0 0)
(-8.02736e-10 0 0)
(-1.2685e-09 0 0)
(-1.1821e-09 0 0)
(-6.15019e-10 0 0)
(-5.67307e-11 0 0)
(4.39889e-10 0 0)
(3.55165e-10 0 0)
(6.74972e-10 0 0)
(1.26704e-09 0 0)
(1.47701e-09 0 0)
(1.946e-09 0 0)
(1.96617e-09 0 0)
(1.53737e-09 0 0)
(1.44748e-09 0 0)
(1.71177e-09 0 0)
(1.91908e-09 0 0)
(2.1983e-09 0 0)
(2.09989e-09 0 0)
(1.37897e-09 0 0)
(1.71229e-09 0 0)
(2.55573e-09 0 0)
(2.54113e-09 0 0)
(2.51819e-09 0 0)
(2.32677e-09 0 0)
(2.03506e-09 0 0)
(2.02202e-09 0 0)
(2.06489e-09 0 0)
(2.01692e-09 0 0)
(2.04936e-09 0 0)
(2.14224e-09 0 0)
(2.21424e-09 0 0)
(2.30167e-09 0 0)
(2.27508e-09 0 0)
(2.0364e-09 0 0)
(1.81945e-09 0 0)
(2.01591e-09 0 0)
(1.85974e-09 0 0)
(1.59261e-09 0 0)
(2.00188e-09 0 0)
(2.44436e-09 0 0)
(2.52642e-09 0 0)
(2.52564e-09 0 0)
(2.2539e-09 0 0)
(1.7165e-09 0 0)
(1.10542e-09 0 0)
(9.38735e-10 0 0)
(1.31723e-09 0 0)
(1.1374e-09 0 0)
(8.10698e-10 0 0)
(7.49067e-10 0 0)
(6.60693e-10 0 0)
(3.94211e-10 0 0)
(2.36626e-10 0 0)
(2.68589e-10 0 0)
(4.82442e-10 0 0)
(9.88133e-10 0 0)
(7.16989e-10 0 0)
(4.0678e-10 0 0)
(5.74442e-10 0 0)
(5.92678e-10 0 0)
(5.64083e-10 0 0)
(5.95816e-10 0 0)
(1.08647e-09 0 0)
(1.20633e-09 0 0)
(3.66089e-10 0 0)
(-5.95412e-10 0 0)
(-1.10267e-09 0 0)
(-7.62999e-10 0 0)
(-5.00827e-10 0 0)
(-3.18923e-10 0 0)
(-2.92327e-10 0 0)
(-6.5979e-10 0 0)
(-4.91805e-10 0 0)
(-1.81706e-10 0 0)
(-4.16559e-10 0 0)
(-7.66781e-10 0 0)
(-1.05372e-09 0 0)
(-1.19056e-09 0 0)
(-9.1895e-10 0 0)
(-8.47736e-10 0 0)
(-7.02786e-10 0 0)
(-2.87186e-10 0 0)
(-3.08251e-10 0 0)
(-7.31455e-10 0 0)
(-1.10322e-09 0 0)
(-1.4236e-09 0 0)
(-1.83364e-09 0 0)
(-1.66319e-09 0 0)
(-1.60833e-09 0 0)
(-1.90692e-09 0 0)
(-1.60267e-09 0 0)
(-1.31571e-09 0 0)
(-1.09684e-09 0 0)
(-8.30462e-10 0 0)
(-8.76572e-10 0 0)
(-1.1223e-09 0 0)
(-1.17568e-09 0 0)
(-9.80223e-10 0 0)
(-1.01651e-09 0 0)
(-6.88051e-10 0 0)
(-4.84873e-10 0 0)
(-9.08045e-10 0 0)
(-1.00472e-09 0 0)
(-8.64477e-10 0 0)
(-9.13998e-10 0 0)
(-9.56159e-10 0 0)
(-1.03058e-09 0 0)
(-1.21336e-09 0 0)
(-1.15028e-09 0 0)
(-8.82853e-10 0 0)
(-7.23154e-10 0 0)
(-9.92556e-10 0 0)
(-1.14321e-09 0 0)
(-1.14199e-09 0 0)
(-9.60297e-10 0 0)
(-7.46293e-10 0 0)
(-4.42129e-10 0 0)
(-4.03618e-10 0 0)
(-6.64955e-10 0 0)
(-8.7819e-10 0 0)
(-1.08491e-09 0 0)
(-8.68482e-10 0 0)
(-2.88249e-10 0 0)
(-2.20652e-10 0 0)
(-3.99278e-10 0 0)
(-6.88787e-10 0 0)
(-1.12658e-09 0 0)
(-1.2901e-09 0 0)
(-1.51354e-09 0 0)
(-1.51697e-09 0 0)
(-7.92369e-10 0 0)
(-4.95806e-10 0 0)
(-6.36827e-10 0 0)
(-3.75105e-10 0 0)
(-1.24164e-09 0 0)
(-2.10036e-09 0 0)
(-1.83245e-09 0 0)
(-1.71072e-09 0 0)
(-1.41179e-09 0 0)
(-8.29891e-10 0 0)
(-4.0327e-10 0 0)
(-7.0136e-10 0 0)
(-1.36802e-09 0 0)
(-1.61037e-09 0 0)
(-1.82423e-09 0 0)
(-1.9311e-09 0 0)
(-1.38412e-09 0 0)
(-5.22641e-10 0 0)
(-5.13227e-10 0 0)
(-1.3443e-09 0 0)
(-1.74324e-09 0 0)
(-1.87878e-09 0 0)
(-2.16409e-09 0 0)
(-2.38828e-09 0 0)
(-2.73854e-09 0 0)
(-2.8077e-09 0 0)
(-2.32308e-09 0 0)
(-1.23753e-09 0 0)
(-3.82711e-11 0 0)
(6.45392e-10 0 0)
(1.13264e-09 0 0)
(9.03583e-10 0 0)
(4.62802e-11 0 0)
(-4.52981e-10 0 0)
(-1.7394e-11 0 0)
(1.00178e-10 0 0)
(3.12345e-10 0 0)
(5.94789e-10 0 0)
(6.94771e-10 0 0)
(8.81546e-10 0 0)
(6.61295e-10 0 0)
(1.16049e-09 0 0)
(1.4418e-09 0 0)
(1.30758e-09 0 0)
(1.20713e-09 0 0)
(1.15949e-09 0 0)
(1.2099e-09 0 0)
(1.13226e-09 0 0)
(5.67945e-10 0 0)
(3.48368e-10 0 0)
(3.39736e-10 0 0)
(1.3303e-10 0 0)
(4.70333e-10 0 0)
(9.0887e-10 0 0)
(9.41015e-10 0 0)
(7.37625e-10 0 0)
(7.66517e-10 0 0)
(4.84446e-10 0 0)
(3.69694e-10 0 0)
(2.03136e-10 0 0)
(-1.55436e-10 0 0)
(-3.1863e-10 0 0)
(-3.5009e-11 0 0)
(1.71094e-10 0 0)
(-2.49966e-10 0 0)
(-4.17302e-10 0 0)
(-4.44703e-10 0 0)
(-2.77014e-10 0 0)
(3.91071e-11 0 0)
(2.55359e-10 0 0)
(1.11658e-10 0 0)
(7.69663e-11 0 0)
(-1.78447e-11 0 0)
(-6.38088e-10 0 0)
(-7.55814e-10 0 0)
(-3.41945e-10 0 0)
(1.20652e-10 0 0)
(3.51739e-10 0 0)
(2.36255e-10 0 0)
(3.80792e-11 0 0)
(-1.83254e-10 0 0)
(-2.25019e-10 0 0)
(-1.7445e-12 0 0)
(-3.57951e-10 0 0)
(-6.65065e-10 0 0)
(-3.74028e-10 0 0)
(-2.68316e-10 0 0)
(-1.86041e-10 0 0)
(-4.24733e-10 0 0)
(-5.36217e-10 0 0)
(-8.73936e-10 0 0)
(-8.72142e-10 0 0)
(-5.77812e-10 0 0)
(-7.99028e-10 0 0)
(-8.45327e-10 0 0)
(-9.73064e-10 0 0)
(-1.21183e-09 0 0)
(-9.17421e-10 0 0)
(-2.67475e-10 0 0)
(5.04426e-10 0 0)
(6.97206e-10 0 0)
(2.85967e-10 0 0)
(7.57178e-10 0 0)
(1.53243e-09 0 0)
(1.77896e-09 0 0)
(2.39257e-09 0 0)
(2.52711e-09 0 0)
(1.70015e-09 0 0)
(1.20386e-09 0 0)
(1.1772e-09 0 0)
(9.97688e-10 0 0)
(7.05782e-10 0 0)
(6.16789e-10 0 0)
(9.93551e-10 0 0)
(1.31581e-09 0 0)
(1.19408e-09 0 0)
(1.28398e-09 0 0)
(1.58277e-09 0 0)
(1.33004e-09 0 0)
(2.1067e-10 0 0)
(-2.33111e-10 0 0)
(-6.55282e-10 0 0)
(-9.283e-10 0 0)
(-8.41282e-10 0 0)
(-9.00609e-10 0 0)
(-3.19382e-10 0 0)
(-2.36915e-10 0 0)
(-1.87563e-10 0 0)
(2.31416e-10 0 0)
(3.63595e-10 0 0)
(-1.33507e-11 0 0)
(-3.40703e-10 0 0)
(1.73118e-10 0 0)
(8.60898e-11 0 0)
(-1.97307e-10 0 0)
(1.53192e-10 0 0)
(2.79856e-10 0 0)
(1.66059e-10 0 0)
(9.56396e-11 0 0)
(2.9466e-11 0 0)
(1.04823e-10 0 0)
(3.38406e-10 0 0)
(6.15505e-10 0 0)
(3.22022e-10 0 0)
(5.21928e-10 0 0)
(1.18399e-09 0 0)
(9.69458e-10 0 0)
(7.91153e-10 0 0)
(1.07776e-09 0 0)
(1.41395e-09 0 0)
(1.42511e-09 0 0)
(1.06374e-09 0 0)
(4.02517e-10 0 0)
(1.43538e-10 0 0)
(-1.00601e-10 0 0)
(-6.59363e-10 0 0)
(-7.9193e-10 0 0)
(-4.6445e-10 0 0)
(-4.99668e-11 0 0)
(1.42105e-10 0 0)
(-9.02282e-11 0 0)
(1.61225e-10 0 0)
(4.41394e-10 0 0)
(4.57023e-10 0 0)
(5.71509e-10 0 0)
(7.58212e-10 0 0)
(9.30424e-10 0 0)
(1.07816e-09 0 0)
(1.58829e-09 0 0)
(2.04361e-09 0 0)
(2.30062e-09 0 0)
(1.73486e-09 0 0)
(1.9693e-09 0 0)
(2.29495e-09 0 0)
(1.73132e-09 0 0)
(1.11674e-09 0 0)
(9.06423e-10 0 0)
(1.10297e-09 0 0)
(1.13343e-09 0 0)
(9.58702e-10 0 0)
(1.1224e-09 0 0)
(1.36123e-09 0 0)
(9.59357e-10 0 0)
(1.46995e-09 0 0)
(1.86274e-09 0 0)
(1.62793e-09 0 0)
(1.37751e-09 0 0)
(7.73546e-10 0 0)
(2.69941e-10 0 0)
(1.27268e-10 0 0)
(1.37765e-11 0 0)
(3.65859e-10 0 0)
(5.56515e-10 0 0)
(2.00427e-10 0 0)
(5.04459e-12 0 0)
(-2.67521e-10 0 0)
(-6.06599e-10 0 0)
(-7.86852e-10 0 0)
(-7.60903e-10 0 0)
(-4.28059e-10 0 0)
(2.03979e-10 0 0)
(4.80205e-10 0 0)
(6.05434e-10 0 0)
(8.1744e-10 0 0)
(1.18998e-09 0 0)
(1.19149e-09 0 0)
(1.23923e-09 0 0)
(1.28522e-09 0 0)
(5.6041e-10 0 0)
(-3.1562e-11 0 0)
(-5.95686e-10 0 0)
(-8.13797e-10 0 0)
(-4.33553e-10 0 0)
(-3.22278e-10 0 0)
(-2.51669e-10 0 0)
(-9.24058e-11 0 0)
(-3.71336e-10 0 0)
(-6.12633e-10 0 0)
(-5.60471e-10 0 0)
(-6.00074e-10 0 0)
(-6.06561e-10 0 0)
(-6.19255e-10 0 0)
(-3.80868e-10 0 0)
(-6.42553e-10 0 0)
(-1.11153e-09 0 0)
(-1.00278e-09 0 0)
(-1.25493e-09 0 0)
(-1.7356e-09 0 0)
(-1.44211e-09 0 0)
(-8.03478e-10 0 0)
(-6.88951e-10 0 0)
(-5.57753e-10 0 0)
(-4.24044e-10 0 0)
(6.85464e-11 0 0)
(6.55189e-10 0 0)
(7.72356e-10 0 0)
(7.19769e-10 0 0)
(4.70895e-10 0 0)
(3.31882e-10 0 0)
(3.04532e-10 0 0)
(4.53037e-10 0 0)
(8.39097e-10 0 0)
(1.159e-09 0 0)
(1.6927e-09 0 0)
(2.54217e-09 0 0)
(2.87337e-09 0 0)
(2.58756e-09 0 0)
(2.20948e-09 0 0)
(1.77763e-09 0 0)
(1.47467e-09 0 0)
(1.23795e-09 0 0)
(1.00961e-09 0 0)
(7.86603e-10 0 0)
(6.05149e-10 0 0)
(8.05117e-10 0 0)
(1.0631e-09 0 0)
(1.45457e-09 0 0)
(1.31571e-09 0 0)
(3.05253e-10 0 0)
(-6.23306e-10 0 0)
(-1.10741e-09 0 0)
(-8.12587e-10 0 0)
(-5.77119e-10 0 0)
(-2.30198e-10 0 0)
(-3.34936e-11 0 0)
(-2.40052e-10 0 0)
(-4.37132e-10 0 0)
(-7.41322e-10 0 0)
(-1.03953e-09 0 0)
(-1.26498e-09 0 0)
(-1.34472e-09 0 0)
(-1.39382e-09 0 0)
(-9.5245e-10 0 0)
(-5.86063e-10 0 0)
(-9.384e-10 0 0)
(-1.14233e-09 0 0)
(-7.86608e-10 0 0)
(-4.88398e-10 0 0)
(-3.30677e-10 0 0)
(-3.58931e-10 0 0)
(-2.00889e-10 0 0)
(4.51407e-10 0 0)
(1.14141e-09 0 0)
(1.69947e-09 0 0)
(2.14614e-09 0 0)
(3.20763e-09 0 0)
(4.95027e-09 0 0)
(6.79125e-09 0 0)
(8.99457e-09 0 0)
(1.13816e-08 0 0)
(1.50166e-08 0 0)
(1.98843e-08 0 0)
(2.5198e-08 0 0)
(3.18982e-08 0 0)
(4.0148e-08 0 0)
(5.03004e-08 0 0)
(6.26012e-08 0 0)
(7.78602e-08 0 0)
(9.59542e-08 0 0)
(1.18075e-07 0 0)
(1.45214e-07 0 0)
(1.7746e-07 0 0)
(2.17173e-07 0 0)
(2.65474e-07 0 0)
(3.23428e-07 0 0)
(3.93369e-07 0 0)
(4.77929e-07 0 0)
(5.79721e-07 0 0)
(7.02164e-07 0 0)
(8.49325e-07 0 0)
(1.02605e-06 0 0)
(1.23845e-06 0 0)
(1.49363e-06 0 0)
(1.79991e-06 0 0)
(2.16727e-06 0 0)
(2.60712e-06 0 0)
(3.13325e-06 0 0)
(3.76245e-06 0 0)
(4.51407e-06 0 0)
(5.4116e-06 0 0)
(6.48284e-06 0 0)
(7.76067e-06 0 0)
(9.28428e-06 0 0)
(1.10995e-05 0 0)
(1.32606e-05 0 0)
(1.58311e-05 0 0)
(1.88863e-05 0 0)
(2.2515e-05 0 0)
(2.68219e-05 0 0)
(3.19304e-05 0 0)
(3.79848e-05 0 0)
(4.51546e-05 0 0)
(5.36381e-05 0 0)
(6.36673e-05 0 0)
(7.55136e-05 0 0)
(8.94939e-05 0 0)
(0.000105976 0 0)
(0.000125388 0 0)
(0.000148222 0 0)
(0.000176947 0 0)
(0.000212709 0 0)
(0.000255033 0 0)
(0.00030518 0 0)
(0.000364629 0 0)
(0.00043512 0 0)
(0.000518696 0 0)
(0.000617759 0 0)
(0.00073513 0 0)
(0.000874124 0 0)
(0.00103863 0 0)
(0.0012332 0 0)
(0.00146319 0 0)
(0.00173482 0 0)
(0.00205542 0 0)
(0.00243349 0 0)
(0.00287899 0 0)
(0.0034035 0 0)
(0.00402048 0 0)
(0.0047456 0 0)
(0.00559702 0 0)
(0.0065958 0 0)
(0.0077663 0 0)
(0.0091367 0 0)
(0.0107395 0 0)
(0.0126121 0 0)
(0.0147976 0 0)
(0.0173454 0 0)
(0.0203124 0 0)
(0.0237635 0 0)
(0.0277729 0 0)
(0.0324252 0 0)
(0.037817 0 0)
(0.0440579 0 0)
(0.0512722 0 0)
(0.0596008 0 0)
(0.0692029 0 0)
(0.0802579 0 0)
(0.0929678 0 0)
(0.10756 0 0)
(0.124288 0 0)
(0.143436 0 0)
(0.165322 0 0)
(0.190299 0 0)
(0.218759 0 0)
(0.251137 0 0)
(0.287912 0 0)
(0.329614 0 0)
(0.376825 0 0)
(0.430185 0 0)
(0.490391 0 0)
(0.558206 0 0)
(0.63446 0 0)
(0.720053 0 0)
(0.81596 0 0)
(0.923232 0 0)
(1.043 0 0)
(1.17648 0 0)
(1.32496 0 0)
(1.48983 0 0)
(1.67256 0 0)
(1.8747 0 0)
(2.09788 0 0)
(2.34383 0 0)
(2.61435 0 0)
(2.91131 0 0)
(3.23665 0 0)
(3.59238 0 0)
(3.98056 0 0)
(4.40329 0 0)
(4.86271 0 0)
(5.36099 0 0)
(5.90029 0 0)
(6.48279 0 0)
(7.11064 0 0)
(7.786 0 0)
(8.51095 0 0)
(9.2876 0 0)
(10.118 0 0)
(11.0041 0 0)
(11.948 0 0)
(12.9518 0 0)
(14.0174 0 0)
(15.1471 0 0)
(16.3431 0 0)
(17.6077 0 0)
(18.9443 0 0)
(20.3538 0 0)
(21.8443 0 0)
(23.4084 0 0)
(25.0725 0 0)
(26.7976 0 0)
(28.665 0 0)
(30.5505 0 0)
(32.6561 0 0)
(34.6878 0 0)
(37.04 0 0)
(39.117 0 0)
(41.4857 0 0)
(42.8409 0 0)
(48.0342 0 0)
)
;

boundaryField
{
    sideLeft
    {
        type            symmetryPlane;
    }
    sideRight
    {
        type            calculated;
        value           uniform (48.0342 0 0);
    }
    topbottom
    {
        type            empty;
    }
    frontback
    {
        type            empty;
    }
}


// ************************************************************************* //
