/*--------------------------------*- C++ -*----------------------------------*\
| =========                 |                                                 |
| \\      /  F ield         | OpenFOAM: The Open Source CFD Toolbox           |
|  \\    /   O peration     | Version:  2.4.0                                 |
|   \\  /    A nd           | Web:      www.OpenFOAM.org                      |
|    \\/     M anipulation  |                                                 |
\*---------------------------------------------------------------------------*/
FoamFile
{
    version     2.0;
    format      ascii;
    class       volVectorField;
    location    "0.01";
    object      Ur;
}
// * * * * * * * * * * * * * * * * * * * * * * * * * * * * * * * * * * * * * //

dimensions      [0 1 -1 0 0 0 0];

internalField   nonuniform List<vector> 
1000
(
(2.61989e-10 0 0)
(7.82497e-10 0 0)
(1.29232e-09 0 0)
(1.7831e-09 0 0)
(2.24381e-09 0 0)
(2.65951e-09 0 0)
(3.01211e-09 0 0)
(3.28145e-09 0 0)
(3.44687e-09 0 0)
(3.48958e-09 0 0)
(3.39411e-09 0 0)
(3.15131e-09 0 0)
(2.76061e-09 0 0)
(2.22962e-09 0 0)
(1.57455e-09 0 0)
(8.19316e-10 0 0)
(-6.34663e-12 0 0)
(-8.68109e-10 0 0)
(-1.73079e-09 0 0)
(-2.55942e-09 0 0)
(-3.32037e-09 0 0)
(-3.98452e-09 0 0)
(-4.52766e-09 0 0)
(-4.93126e-09 0 0)
(-5.18333e-09 0 0)
(-5.27772e-09 0 0)
(-5.21398e-09 0 0)
(-4.99529e-09 0 0)
(-4.62569e-09 0 0)
(-4.10961e-09 0 0)
(-3.4521e-09 0 0)
(-2.65771e-09 0 0)
(-1.72706e-09 0 0)
(3.96215e-10 0 0)
(1.55219e-09 0 0)
(-4.53858e-10 0 0)
(-3.79424e-09 0 0)
(-5.00703e-09 0 0)
(-2.67829e-09 0 0)
(-5.99267e-10 0 0)
(1.71265e-11 0 0)
(5.15405e-10 0 0)
(9.09153e-10 0 0)
(1.20923e-09 0 0)
(1.42381e-09 0 0)
(1.5607e-09 0 0)
(1.6267e-09 0 0)
(1.62745e-09 0 0)
(1.56664e-09 0 0)
(1.44666e-09 0 0)
(1.26847e-09 0 0)
(2.2977e-09 0 0)
(3.34409e-09 0 0)
(1.82627e-09 0 0)
(9.95689e-10 0 0)
(1.50167e-09 0 0)
(2.461e-11 0 0)
(-1.07012e-09 0 0)
(-2.02434e-09 0 0)
(-2.32628e-09 0 0)
(-1.00904e-09 0 0)
(-3.64022e-10 0 0)
(1.54629e-10 0 0)
(7.00848e-10 0 0)
(1.22342e-09 0 0)
(1.5858e-09 0 0)
(1.7988e-09 0 0)
(1.91584e-09 0 0)
(1.95001e-09 0 0)
(1.94234e-09 0 0)
(2.02306e-09 0 0)
(2.38391e-09 0 0)
(3.28067e-09 0 0)
(2.94552e-09 0 0)
(1.27092e-09 0 0)
(-5.6808e-10 0 0)
(-1.80124e-09 0 0)
(-1.16471e-09 0 0)
(-4.14202e-10 0 0)
(-1.46217e-09 0 0)
(-1.27259e-09 0 0)
(1.94078e-10 0 0)
(4.06003e-11 0 0)
(-1.4649e-09 0 0)
(-1.70808e-09 0 0)
(-5.75153e-11 0 0)
(8.89328e-10 0 0)
(8.42034e-10 0 0)
(1.48998e-10 0 0)
(-8.48832e-10 0 0)
(-1.64032e-09 0 0)
(-2.29339e-09 0 0)
(-1.42841e-09 0 0)
(-5.10943e-11 0 0)
(5.01084e-10 0 0)
(1.54566e-10 0 0)
(-3.7442e-10 0 0)
(-4.74463e-10 0 0)
(2.022e-10 0 0)
(2.44996e-09 0 0)
(3.5791e-09 0 0)
(2.2435e-09 0 0)
(3.64884e-10 0 0)
(9.20073e-10 0 0)
(1.1375e-09 0 0)
(-4.79357e-10 0 0)
(-8.643e-10 0 0)
(-7.03772e-10 0 0)
(-6.45733e-10 0 0)
(-2.74036e-10 0 0)
(1.98444e-10 0 0)
(1.63783e-09 0 0)
(1.65568e-09 0 0)
(-9.7219e-10 0 0)
(-3.23103e-09 0 0)
(-3.19249e-09 0 0)
(-1.20656e-09 0 0)
(-1.31704e-10 0 0)
(-2.90071e-10 0 0)
(-8.2207e-10 0 0)
(-1.13261e-09 0 0)
(-4.92605e-10 0 0)
(-1.10332e-10 0 0)
(8.2355e-10 0 0)
(2.02374e-09 0 0)
(1.18513e-09 0 0)
(-5.79349e-10 0 0)
(-1.07798e-09 0 0)
(1.74222e-10 0 0)
(1.28176e-09 0 0)
(1.52539e-09 0 0)
(1.3751e-09 0 0)
(1.14826e-10 0 0)
(-1.28955e-09 0 0)
(-2.41312e-09 0 0)
(-2.27067e-09 0 0)
(-7.08554e-10 0 0)
(-6.12657e-10 0 0)
(-1.45769e-09 0 0)
(-1.0906e-09 0 0)
(4.75383e-10 0 0)
(5.96232e-10 0 0)
(-8.72149e-10 0 0)
(-7.14638e-10 0 0)
(2.8734e-10 0 0)
(1.59559e-10 0 0)
(-1.25465e-09 0 0)
(-2.85126e-09 0 0)
(-2.36593e-09 0 0)
(-7.88588e-10 0 0)
(4.32519e-10 0 0)
(6.42385e-10 0 0)
(9.01424e-10 0 0)
(3.56687e-09 0 0)
(4.54162e-09 0 0)
(2.6277e-09 0 0)
(1.88567e-09 0 0)
(2.07018e-09 0 0)
(2.33052e-09 0 0)
(2.53499e-09 0 0)
(1.70206e-09 0 0)
(-2.42154e-10 0 0)
(-1.75766e-09 0 0)
(-2.26856e-09 0 0)
(-1.23594e-09 0 0)
(4.35423e-10 0 0)
(-5.91626e-10 0 0)
(-2.65425e-09 0 0)
(-2.53948e-09 0 0)
(-2.15124e-09 0 0)
(-2.32813e-09 0 0)
(-1.55694e-09 0 0)
(-2.16685e-10 0 0)
(-4.10977e-10 0 0)
(-1.02301e-09 0 0)
(-1.69791e-10 0 0)
(6.68647e-10 0 0)
(1.69541e-09 0 0)
(1.94922e-09 0 0)
(1.61032e-09 0 0)
(1.18507e-09 0 0)
(5.4655e-10 0 0)
(-3.73404e-10 0 0)
(-2.16426e-09 0 0)
(-2.79079e-09 0 0)
(-2.0986e-09 0 0)
(-8.25196e-10 0 0)
(1.62061e-10 0 0)
(6.77403e-10 0 0)
(1.04802e-09 0 0)
(1.13181e-09 0 0)
(9.54002e-10 0 0)
(4.43321e-10 0 0)
(-1.55523e-10 0 0)
(-9.1643e-10 0 0)
(-3.80737e-10 0 0)
(1.73377e-11 0 0)
(-6.37215e-10 0 0)
(4.03588e-10 0 0)
(1.81615e-09 0 0)
(2.94278e-09 0 0)
(2.52686e-09 0 0)
(1.71701e-09 0 0)
(1.93285e-09 0 0)
(1.00396e-09 0 0)
(7.66473e-10 0 0)
(1.4391e-09 0 0)
(6.20786e-10 0 0)
(3.24632e-10 0 0)
(4.63559e-10 0 0)
(-5.53256e-10 0 0)
(-3.68005e-10 0 0)
(-7.73811e-10 0 0)
(-1.34708e-09 0 0)
(-1.66961e-09 0 0)
(-2.08354e-09 0 0)
(-2.11366e-09 0 0)
(-1.79693e-09 0 0)
(5.25809e-11 0 0)
(-1.33696e-10 0 0)
(-5.74915e-10 0 0)
(1.22128e-09 0 0)
(7.87282e-10 0 0)
(7.46525e-10 0 0)
(2.21923e-09 0 0)
(3.03396e-09 0 0)
(2.9188e-09 0 0)
(1.33741e-09 0 0)
(-4.78564e-10 0 0)
(-1.06217e-09 0 0)
(-1.9026e-09 0 0)
(-3.00389e-09 0 0)
(-2.28272e-09 0 0)
(-1.26727e-09 0 0)
(4.9965e-10 0 0)
(2.29454e-09 0 0)
(3.31107e-09 0 0)
(4.14554e-09 0 0)
(3.62525e-09 0 0)
(2.41408e-09 0 0)
(9.94645e-10 0 0)
(6.52618e-10 0 0)
(1.81967e-09 0 0)
(1.50624e-09 0 0)
(-6.95213e-11 0 0)
(-1.25903e-09 0 0)
(-1.13982e-09 0 0)
(5.3773e-11 0 0)
(8.40372e-10 0 0)
(1.77528e-09 0 0)
(1.72366e-09 0 0)
(-3.3765e-10 0 0)
(-8.29687e-10 0 0)
(1.76554e-10 0 0)
(1.07837e-09 0 0)
(7.93532e-10 0 0)
(-8.8312e-10 0 0)
(-1.91898e-09 0 0)
(-1.56734e-09 0 0)
(-4.0438e-10 0 0)
(-4.41443e-10 0 0)
(-2.19518e-09 0 0)
(-2.40436e-09 0 0)
(-1.06343e-09 0 0)
(-1.55626e-09 0 0)
(-1.83252e-09 0 0)
(-6.40795e-10 0 0)
(-5.87704e-10 0 0)
(-8.47991e-10 0 0)
(1.48362e-11 0 0)
(5.25176e-10 0 0)
(2.04635e-10 0 0)
(3.58907e-10 0 0)
(-4.82375e-10 0 0)
(-1.80114e-09 0 0)
(-2.23737e-10 0 0)
(1.5869e-09 0 0)
(2.01817e-09 0 0)
(2.43432e-09 0 0)
(1.32275e-09 0 0)
(6.4307e-10 0 0)
(9.04493e-10 0 0)
(2.05189e-11 0 0)
(-5.93961e-10 0 0)
(-2.37155e-10 0 0)
(2.02815e-10 0 0)
(-3.60161e-10 0 0)
(-1.71724e-09 0 0)
(-3.30096e-09 0 0)
(-3.61269e-09 0 0)
(-2.82086e-09 0 0)
(-1.7406e-09 0 0)
(-6.66487e-10 0 0)
(8.34577e-10 0 0)
(2.85377e-09 0 0)
(2.33467e-09 0 0)
(1.0146e-09 0 0)
(9.56222e-10 0 0)
(1.11805e-09 0 0)
(1.62879e-09 0 0)
(1.31866e-09 0 0)
(3.2162e-10 0 0)
(2.7785e-10 0 0)
(-6.51879e-10 0 0)
(-2.74144e-09 0 0)
(-3.50797e-09 0 0)
(-3.40435e-09 0 0)
(-2.27925e-09 0 0)
(-1.06081e-09 0 0)
(-1.1097e-09 0 0)
(-2.4295e-10 0 0)
(3.00703e-11 0 0)
(-1.33173e-09 0 0)
(-2.60604e-09 0 0)
(-2.30244e-09 0 0)
(-1.11515e-09 0 0)
(-7.78756e-10 0 0)
(2.74324e-10 0 0)
(7.3197e-10 0 0)
(-1.02603e-10 0 0)
(2.39368e-10 0 0)
(-5.36146e-10 0 0)
(-1.38897e-09 0 0)
(-7.38509e-10 0 0)
(-3.60388e-10 0 0)
(1.88718e-10 0 0)
(-3.96201e-10 0 0)
(-2.34083e-10 0 0)
(1.72662e-09 0 0)
(1.08809e-09 0 0)
(2.50085e-11 0 0)
(8.24514e-10 0 0)
(1.4158e-09 0 0)
(1.5354e-09 0 0)
(8.30369e-10 0 0)
(1.3701e-09 0 0)
(2.70768e-09 0 0)
(4.32857e-09 0 0)
(4.14633e-09 0 0)
(1.26568e-09 0 0)
(-2.72904e-10 0 0)
(1.90313e-10 0 0)
(2.38003e-10 0 0)
(-1.13347e-10 0 0)
(6.3602e-10 0 0)
(4.60659e-10 0 0)
(-2.27367e-11 0 0)
(2.60855e-10 0 0)
(3.73119e-10 0 0)
(1.44178e-09 0 0)
(1.39551e-09 0 0)
(5.38648e-10 0 0)
(2.99737e-10 0 0)
(-1.20019e-09 0 0)
(-1.88066e-09 0 0)
(-7.14465e-10 0 0)
(3.76645e-10 0 0)
(-5.94184e-10 0 0)
(-9.07163e-10 0 0)
(2.72849e-10 0 0)
(5.72072e-10 0 0)
(5.81453e-10 0 0)
(-1.0243e-10 0 0)
(-1.31843e-09 0 0)
(-2.49372e-09 0 0)
(-2.96069e-09 0 0)
(-2.32046e-09 0 0)
(-1.85463e-09 0 0)
(-6.17207e-10 0 0)
(1.49379e-09 0 0)
(2.09042e-09 0 0)
(1.9657e-09 0 0)
(8.86303e-10 0 0)
(-5.9464e-10 0 0)
(-1.78149e-10 0 0)
(6.76607e-10 0 0)
(5.63944e-10 0 0)
(-7.45387e-10 0 0)
(-2.42443e-09 0 0)
(-1.67364e-09 0 0)
(-4.47697e-10 0 0)
(3.54705e-10 0 0)
(5.52974e-10 0 0)
(-6.94172e-10 0 0)
(-9.67191e-10 0 0)
(-7.49992e-10 0 0)
(-1.44611e-10 0 0)
(9.51214e-10 0 0)
(9.29102e-10 0 0)
(-2.17257e-10 0 0)
(-4.54975e-10 0 0)
(-5.45754e-10 0 0)
(-5.81736e-10 0 0)
(1.87813e-10 0 0)
(9.61508e-10 0 0)
(2.97462e-09 0 0)
(2.9483e-09 0 0)
(2.27374e-09 0 0)
(2.44734e-09 0 0)
(6.75071e-10 0 0)
(-1.58957e-09 0 0)
(-2.96836e-09 0 0)
(-2.6526e-09 0 0)
(-2.44012e-09 0 0)
(-1.82041e-09 0 0)
(-9.89814e-10 0 0)
(-7.23843e-10 0 0)
(-1.55114e-09 0 0)
(-2.18506e-09 0 0)
(-1.08122e-09 0 0)
(3.43734e-10 0 0)
(6.41136e-10 0 0)
(-3.75396e-10 0 0)
(1.36535e-10 0 0)
(1.35787e-09 0 0)
(1.80035e-09 0 0)
(6.42105e-10 0 0)
(-7.60166e-10 0 0)
(-1.23788e-09 0 0)
(-1.65602e-09 0 0)
(-5.93501e-10 0 0)
(2.6188e-10 0 0)
(-7.0173e-10 0 0)
(-1.93551e-10 0 0)
(1.39812e-09 0 0)
(1.52892e-09 0 0)
(1.00618e-09 0 0)
(9.40644e-10 0 0)
(2.13157e-09 0 0)
(2.24031e-09 0 0)
(1.32167e-09 0 0)
(1.08924e-09 0 0)
(1.53637e-09 0 0)
(2.35372e-09 0 0)
(2.24566e-09 0 0)
(1.07031e-09 0 0)
(-9.5929e-10 0 0)
(-1.65744e-09 0 0)
(-1.97451e-09 0 0)
(-2.99388e-09 0 0)
(-1.9416e-09 0 0)
(-1.55749e-10 0 0)
(6.74163e-10 0 0)
(5.54108e-10 0 0)
(1.09486e-09 0 0)
(8.83915e-10 0 0)
(7.48629e-11 0 0)
(-3.93367e-11 0 0)
(-2.07661e-09 0 0)
(-3.40015e-09 0 0)
(-2.33456e-09 0 0)
(-1.05905e-09 0 0)
(1.59162e-11 0 0)
(3.43107e-10 0 0)
(-4.28597e-11 0 0)
(-2.45507e-10 0 0)
(-6.69161e-10 0 0)
(-1.13965e-09 0 0)
(-5.26086e-10 0 0)
(2.15368e-09 0 0)
(2.89401e-09 0 0)
(1.7741e-10 0 0)
(-1.08343e-10 0 0)
(1.76283e-09 0 0)
(9.33083e-10 0 0)
(-4.64979e-10 0 0)
(-1.63694e-11 0 0)
(-1.1056e-09 0 0)
(-1.53705e-09 0 0)
(7.90405e-10 0 0)
(2.13663e-09 0 0)
(2.29806e-09 0 0)
(2.36048e-09 0 0)
(1.54927e-09 0 0)
(-4.66572e-10 0 0)
(-1.96252e-09 0 0)
(-1.45326e-09 0 0)
(-1.35242e-09 0 0)
(-1.97133e-09 0 0)
(-2.38105e-09 0 0)
(-2.44682e-09 0 0)
(-1.42148e-09 0 0)
(-1.52966e-10 0 0)
(4.7828e-10 0 0)
(-1.32447e-11 0 0)
(-4.09387e-10 0 0)
(4.61056e-10 0 0)
(1.0661e-09 0 0)
(5.31827e-10 0 0)
(-1.51016e-09 0 0)
(-2.00998e-09 0 0)
(-1.67938e-09 0 0)
(-3.0123e-09 0 0)
(-2.54397e-09 0 0)
(-6.87578e-10 0 0)
(6.31019e-10 0 0)
(1.55262e-09 0 0)
(9.50876e-10 0 0)
(-2.02933e-10 0 0)
(4.22288e-10 0 0)
(5.21537e-10 0 0)
(4.01427e-10 0 0)
(1.15136e-09 0 0)
(2.41636e-09 0 0)
(3.99387e-09 0 0)
(4.0061e-09 0 0)
(2.95802e-09 0 0)
(3.36388e-09 0 0)
(2.83484e-09 0 0)
(1.48533e-10 0 0)
(-7.14236e-10 0 0)
(-8.61161e-11 0 0)
(-6.2374e-10 0 0)
(-1.93438e-09 0 0)
(-3.32972e-09 0 0)
(-2.76646e-09 0 0)
(-1.53102e-09 0 0)
(-1.74987e-09 0 0)
(-2.21542e-09 0 0)
(-2.76702e-09 0 0)
(-2.09269e-09 0 0)
(-2.21516e-10 0 0)
(1.10584e-09 0 0)
(2.37401e-09 0 0)
(3.28907e-09 0 0)
(3.16976e-09 0 0)
(1.84207e-09 0 0)
(8.99255e-11 0 0)
(5.29155e-10 0 0)
(1.58684e-09 0 0)
(1.68495e-09 0 0)
(9.90553e-10 0 0)
(1.11695e-10 0 0)
(-1.49919e-09 0 0)
(-2.15124e-09 0 0)
(-2.34241e-09 0 0)
(-2.60877e-09 0 0)
(-5.72356e-10 0 0)
(2.05967e-09 0 0)
(3.09024e-09 0 0)
(1.30786e-09 0 0)
(9.61802e-11 0 0)
(9.80776e-10 0 0)
(1.77471e-09 0 0)
(1.27869e-09 0 0)
(-3.15026e-10 0 0)
(-2.1011e-09 0 0)
(-2.06291e-09 0 0)
(-1.11601e-09 0 0)
(-1.04751e-09 0 0)
(-9.14272e-10 0 0)
(5.67068e-10 0 0)
(7.69772e-10 0 0)
(-3.85115e-10 0 0)
(-1.18177e-09 0 0)
(-1.067e-09 0 0)
(4.79477e-10 0 0)
(2.67323e-09 0 0)
(3.07449e-09 0 0)
(1.22986e-09 0 0)
(2.22598e-10 0 0)
(1.5484e-10 0 0)
(8.57881e-10 0 0)
(1.77637e-10 0 0)
(-2.46245e-10 0 0)
(1.09731e-09 0 0)
(1.24567e-09 0 0)
(1.14733e-09 0 0)
(5.97709e-10 0 0)
(-1.17553e-10 0 0)
(4.2354e-10 0 0)
(8.10608e-11 0 0)
(-6.41532e-10 0 0)
(-3.86932e-10 0 0)
(-9.95215e-10 0 0)
(-1.7609e-09 0 0)
(-6.54951e-10 0 0)
(-7.6358e-10 0 0)
(-1.81586e-09 0 0)
(-2.17614e-09 0 0)
(-1.48634e-09 0 0)
(-1.19599e-09 0 0)
(-1.50055e-09 0 0)
(-8.09732e-10 0 0)
(5.62924e-10 0 0)
(1.56638e-09 0 0)
(8.78571e-10 0 0)
(-1.01524e-10 0 0)
(-9.06541e-10 0 0)
(-1.07713e-09 0 0)
(-7.74492e-10 0 0)
(4.22687e-10 0 0)
(2.582e-09 0 0)
(2.95733e-09 0 0)
(2.16727e-09 0 0)
(1.59213e-09 0 0)
(2.07934e-10 0 0)
(4.33886e-10 0 0)
(7.28506e-10 0 0)
(2.42324e-10 0 0)
(5.89976e-10 0 0)
(1.78187e-09 0 0)
(1.90203e-09 0 0)
(-3.5533e-10 0 0)
(-2.35803e-09 0 0)
(-1.53943e-09 0 0)
(1.09596e-10 0 0)
(-2.94507e-10 0 0)
(-1.81106e-10 0 0)
(6.35849e-10 0 0)
(9.2399e-10 0 0)
(6.5353e-10 0 0)
(-2.21689e-10 0 0)
(-1.21662e-09 0 0)
(-1.93961e-09 0 0)
(-2.08252e-09 0 0)
(-6.29827e-10 0 0)
(4.41957e-10 0 0)
(-3.46458e-10 0 0)
(-7.97283e-10 0 0)
(-9.0756e-10 0 0)
(-8.02913e-10 0 0)
(-4.16776e-10 0 0)
(-3.47313e-10 0 0)
(-7.91885e-10 0 0)
(-1.09094e-09 0 0)
(2.57047e-10 0 0)
(2.7365e-09 0 0)
(3.33773e-09 0 0)
(2.47337e-09 0 0)
(2.38441e-09 0 0)
(2.67056e-09 0 0)
(2.2294e-09 0 0)
(2.81358e-09 0 0)
(3.35609e-09 0 0)
(2.20348e-09 0 0)
(7.27029e-10 0 0)
(-1.47241e-09 0 0)
(-3.32306e-09 0 0)
(-2.31421e-09 0 0)
(-6.70152e-11 0 0)
(-4.30701e-10 0 0)
(-1.72184e-09 0 0)
(-6.26982e-10 0 0)
(2.36641e-10 0 0)
(-9.62644e-10 0 0)
(-9.00913e-10 0 0)
(-7.22497e-11 0 0)
(-1.18234e-09 0 0)
(-3.49485e-09 0 0)
(-4.3874e-09 0 0)
(-4.26059e-09 0 0)
(-3.19688e-09 0 0)
(-6.84054e-10 0 0)
(4.40478e-10 0 0)
(9.8066e-10 0 0)
(2.74139e-09 0 0)
(3.18687e-09 0 0)
(1.59122e-09 0 0)
(-8.48841e-10 0 0)
(-2.18904e-09 0 0)
(-2.22547e-09 0 0)
(-1.8623e-09 0 0)
(-1.18723e-09 0 0)
(-3.57205e-10 0 0)
(-1.80114e-09 0 0)
(-2.48258e-09 0 0)
(1.4211e-10 0 0)
(1.71639e-09 0 0)
(3.17244e-10 0 0)
(-9.43373e-10 0 0)
(-2.7513e-11 0 0)
(-4.26838e-10 0 0)
(-2.91493e-10 0 0)
(1.624e-10 0 0)
(5.76944e-11 0 0)
(8.24172e-10 0 0)
(1.65346e-09 0 0)
(2.06194e-09 0 0)
(1.63618e-09 0 0)
(1.67819e-09 0 0)
(6.51595e-10 0 0)
(1.32453e-11 0 0)
(-3.73119e-10 0 0)
(-4.62591e-10 0 0)
(1.63709e-09 0 0)
(2.52987e-09 0 0)
(1.24328e-09 0 0)
(-7.84156e-10 0 0)
(-2.39242e-09 0 0)
(-3.5717e-09 0 0)
(-3.48592e-09 0 0)
(-1.48401e-09 0 0)
(-1.55745e-09 0 0)
(-1.76561e-09 0 0)
(8.36738e-10 0 0)
(1.7073e-09 0 0)
(1.60731e-09 0 0)
(1.80728e-09 0 0)
(6.94231e-10 0 0)
(-3.28441e-10 0 0)
(-5.95775e-10 0 0)
(-1.6388e-10 0 0)
(1.06178e-09 0 0)
(1.09895e-09 0 0)
(1.33735e-09 0 0)
(1.0296e-09 0 0)
(5.20571e-10 0 0)
(1.78539e-09 0 0)
(9.77481e-10 0 0)
(-5.88839e-10 0 0)
(-9.14667e-10 0 0)
(-1.35828e-09 0 0)
(-1.25738e-09 0 0)
(-3.60674e-10 0 0)
(-1.21703e-10 0 0)
(9.0239e-10 0 0)
(2.84769e-09 0 0)
(2.86605e-09 0 0)
(1.89914e-09 0 0)
(2.93738e-09 0 0)
(3.42078e-09 0 0)
(3.95033e-09 0 0)
(4.62591e-09 0 0)
(2.24827e-09 0 0)
(-8.83745e-10 0 0)
(-3.29748e-09 0 0)
(-3.47631e-09 0 0)
(-2.07268e-09 0 0)
(-2.07774e-09 0 0)
(-1.14301e-09 0 0)
(1.08758e-09 0 0)
(5.10451e-10 0 0)
(-6.46311e-10 0 0)
(-4.69754e-10 0 0)
(-6.38123e-10 0 0)
(-1.49885e-09 0 0)
(-1.14534e-09 0 0)
(-6.58189e-10 0 0)
(-1.02023e-09 0 0)
(-7.78528e-10 0 0)
(-3.29066e-10 0 0)
(-6.14459e-11 0 0)
(-7.02526e-10 0 0)
(-9.94247e-10 0 0)
(-1.83041e-09 0 0)
(-2.50549e-09 0 0)
(-9.4025e-10 0 0)
(2.42121e-11 0 0)
(-6.75322e-11 0 0)
(-7.34645e-10 0 0)
(-1.45155e-09 0 0)
(-1.16006e-09 0 0)
(-2.83874e-10 0 0)
(-8.0672e-10 0 0)
(-8.11951e-10 0 0)
(9.6236e-10 0 0)
(2.65982e-09 0 0)
(3.35444e-09 0 0)
(1.50442e-09 0 0)
(-7.9581e-10 0 0)
(-1.49368e-09 0 0)
(-9.19954e-10 0 0)
(1.13689e-10 0 0)
(2.14757e-10 0 0)
(-5.74062e-10 0 0)
(-1.15233e-09 0 0)
(-1.44149e-09 0 0)
(-9.20809e-10 0 0)
(-9.38028e-12 0 0)
(1.31286e-09 0 0)
(2.30944e-09 0 0)
(3.49269e-09 0 0)
(3.9081e-09 0 0)
(3.48984e-09 0 0)
(3.45796e-09 0 0)
(1.91432e-09 0 0)
(-5.54678e-10 0 0)
(-1.39613e-09 0 0)
(-2.0658e-09 0 0)
(-3.8068e-09 0 0)
(-3.32324e-09 0 0)
(-3.07551e-09 0 0)
(-2.93164e-09 0 0)
(-2.10855e-09 0 0)
(-1.94285e-09 0 0)
(-1.60969e-09 0 0)
(-2.66427e-10 0 0)
(-5.96863e-11 0 0)
(-1.62168e-09 0 0)
(-2.30267e-09 0 0)
(-1.8835e-09 0 0)
(-8.52477e-10 0 0)
(-8.73283e-10 0 0)
(-1.83667e-09 0 0)
(-1.68996e-09 0 0)
(-7.27608e-12 0 0)
(6.97241e-10 0 0)
(7.5795e-10 0 0)
(1.70564e-09 0 0)
(2.44836e-09 0 0)
(2.36144e-09 0 0)
(1.30097e-09 0 0)
(-1.05092e-09 0 0)
(-2.05387e-09 0 0)
(-3.64538e-10 0 0)
(1.58832e-09 0 0)
(1.94479e-09 0 0)
(1.52653e-09 0 0)
(1.0001e-09 0 0)
(1.1408e-10 0 0)
(5.01754e-10 0 0)
(1.70451e-09 0 0)
(1.99856e-09 0 0)
(1.70502e-09 0 0)
(1.2634e-09 0 0)
(-7.1735e-11 0 0)
(2.10152e-10 0 0)
(2.03727e-09 0 0)
(1.40352e-09 0 0)
(5.55301e-10 0 0)
(1.10287e-09 0 0)
(8.99317e-10 0 0)
(6.40339e-10 0 0)
(6.97981e-10 0 0)
(9.22e-10 0 0)
(3.68458e-10 0 0)
(3.27306e-10 0 0)
(-1.66093e-10 0 0)
(-1.36003e-09 0 0)
(-1.0782e-09 0 0)
(-1.17524e-09 0 0)
(-2.1933e-09 0 0)
(-1.99355e-09 0 0)
(-2.63355e-10 0 0)
(-3.43163e-10 0 0)
(-1.2285e-09 0 0)
(2.12598e-10 0 0)
(2.85207e-09 0 0)
(3.97024e-09 0 0)
(2.75322e-09 0 0)
(1.91065e-10 0 0)
(-1.58415e-09 0 0)
(-1.23513e-09 0 0)
(-1.54696e-09 0 0)
(-2.12096e-09 0 0)
(-1.37971e-09 0 0)
(-3.72325e-10 0 0)
(4.2179e-10 0 0)
(1.75086e-09 0 0)
(3.54605e-09 0 0)
(2.37504e-09 0 0)
(1.98666e-09 0 0)
(2.85383e-09 0 0)
(2.45153e-09 0 0)
(3.28513e-09 0 0)
(4.19485e-09 0 0)
(4.51074e-09 0 0)
(4.91731e-09 0 0)
(5.44087e-09 0 0)
(6.04847e-09 0 0)
(6.70652e-09 0 0)
(7.43837e-09 0 0)
(8.22688e-09 0 0)
(9.05032e-09 0 0)
(9.87745e-09 0 0)
(1.06654e-08 0 0)
(1.13565e-08 0 0)
(1.18717e-08 0 0)
(1.21057e-08 0 0)
(1.1919e-08 0 0)
(1.11255e-08 0 0)
(9.47992e-09 0 0)
(6.66377e-09 0 0)
(2.26709e-09 0 0)
(-4.23554e-09 0 0)
(-1.35119e-08 0 0)
(-2.64054e-08 0 0)
(-4.39768e-08 0 0)
(-6.75507e-08 0 0)
(-9.87712e-08 0 0)
(-1.39666e-07 0 0)
(-1.92715e-07 0 0)
(-2.60926e-07 0 0)
(-3.47913e-07 0 0)
(-4.57972e-07 0 0)
(-5.96138e-07 0 0)
(-7.68214e-07 0 0)
(-9.80748e-07 0 0)
(-1.24091e-06 0 0)
(-1.55623e-06 0 0)
(-1.93408e-06 0 0)
(-2.38086e-06 0 0)
(-2.90061e-06 0 0)
(-3.49288e-06 0 0)
(-4.14953e-06 0 0)
(-4.84989e-06 0 0)
(-5.55374e-06 0 0)
(-6.191e-06 0 0)
(-7.43548e-06 0 0)
(-9.36133e-06 0 0)
(-1.13794e-05 0 0)
(-1.35907e-05 0 0)
(-1.60852e-05 0 0)
(-1.89488e-05 0 0)
(-2.2267e-05 0 0)
(-2.61297e-05 0 0)
(-3.06334e-05 0 0)
(-3.58848e-05 0 0)
(-4.20029e-05 0 0)
(-4.91213e-05 0 0)
(-5.73907e-05 0 0)
(-6.69813e-05 0 0)
(-7.8085e-05 0 0)
(-9.09177e-05 0 0)
(-0.000105722 0 0)
(-0.000122769 0 0)
(-0.000142362 0 0)
(-0.000164838 0 0)
(-0.000190568 0 0)
(-0.000219963 0 0)
(-0.000253473 0 0)
(-0.000291589 0 0)
(-0.000334843 0 0)
(-0.000383809 0 0)
(-0.000439101 0 0)
(-0.000501373 0 0)
(-0.000571313 0 0)
(-0.000649642 0 0)
(-0.000737105 0 0)
(-0.000834465 0 0)
(-0.000942496 0 0)
(-0.00106197 0 0)
(-0.00119364 0 0)
(-0.00133825 0 0)
(-0.0014964 0 0)
(-0.0016687 0 0)
(-0.00185578 0 0)
(-0.00205814 0 0)
(-0.00227617 0 0)
(-0.00251019 0 0)
(-0.00276044 0 0)
(-0.00302709 0 0)
(-0.00331027 0 0)
(-0.00361022 0 0)
(-0.00392714 0 0)
(-0.00426126 0 0)
(-0.00461305 0 0)
(-0.00498327 0 0)
(-0.00537302 0 0)
(-0.0057838 0 0)
(-0.00621761 0 0)
(-0.00667696 0 0)
(-0.00716484 0 0)
(-0.00768464 0 0)
(-0.00823993 0 0)
(-0.00883422 0 0)
(-0.00947043 0 0)
(-0.0101503 0 0)
(-0.0108738 0 0)
(-0.0116377 0 0)
(-0.0124349 0 0)
(-0.0132533 0 0)
(-0.0140741 0 0)
(-0.0148709 0 0)
(-0.015609 0 0)
(-0.0162445 0 0)
(-0.0167248 0 0)
(-0.0169893 0 0)
(-0.0169716 0 0)
(-0.0166031 0 0)
(-0.0158175 0 0)
(-0.0145554 0 0)
(-0.0127753 0 0)
(-0.0104572 0 0)
(-0.00761095 0 0)
(-0.00428326 0 0)
(-0.000561277 0 0)
(0.00342545 0 0)
(0.00751333 0 0)
(0.0114961 0 0)
(0.015189 0 0)
(0.0183059 0 0)
(0.0208348 0 0)
(0.0222306 0 0)
(0.0231999 0 0)
(0.022289 0 0)
(0.0218918 0 0)
(0.0188773 0 0)
(0.0174133 0 0)
(0.0142437 0 0)
(0.0113763 0 0)
(0.0108029 0 0)
(0.0116725 0 0)
(0.00975001 0 0)
(0.00970668 0 0)
(0.0440966 0 0)
(0.0431062 0 0)
(-0.0252469 0 0)
(0.154935 0 0)
)
;

boundaryField
{
    sideLeft
    {
        type            symmetryPlane;
    }
    sideRight
    {
        type            calculated;
        value           uniform (0.154935 0 0);
    }
    topbottom
    {
        type            empty;
    }
    frontback
    {
        type            empty;
    }
}


// ************************************************************************* //
