# Probe 0 (1 0 0)
# Probe 1 (140 0 0)
# Probe 2 (200 0 0)
# Probe 3 (250 0 0)
# Probe 4 (255 0 0)
#       Probe             0             1             2             3             4
#        Time
            0          0.48          0.48          0.48          0.48          0.48
         0.01      0.487748      0.487748      0.487748      0.487748      0.543115
         0.02      0.487748      0.487748      0.487748      0.487748      0.641392
         0.03      0.487748      0.487748      0.487748      0.487824      0.679369
         0.04      0.487748      0.487748      0.487748      0.490231      0.698362
