# Probe 0 (1 0 0)
# Probe 1 (140 0 0)
# Probe 2 (200 0 0)
# Probe 3 (250 0 0)
# Probe 4 (255 0 0)
#       Probe             0             1             2             3             4
#        Time
            0           0.5           0.5           0.5           0.5           0.5
         0.01      0.507635      0.507635      0.507635      0.507635      0.560006
         0.02      0.507635      0.507635      0.507635      0.507635      0.649917
         0.03      0.507635      0.507635      0.507635      0.507901      0.690225
         0.04      0.507635      0.507635      0.507635      0.509099      0.713465
         0.05      0.507635      0.507635      0.507635       0.51518      0.728489
         0.06      0.507635      0.507635      0.507635      0.535204      0.738772
         0.07      0.507635      0.507635      0.507635      0.564691      0.746314
         0.08      0.507635      0.507635      0.507635      0.591988      0.751931
         0.09      0.507635      0.507635      0.507635      0.614567      0.756478
          0.1      0.507635      0.507635      0.507635      0.633192      0.760382
         0.11      0.507635      0.507635      0.507635      0.648853      0.763923
         0.12      0.507635      0.507635      0.507635      0.662221       0.76724
         0.13      0.507635      0.507635      0.507635      0.673759      0.770435
         0.14      0.507635      0.507635      0.507635      0.683789      0.773587
         0.15      0.507635      0.507635      0.507635      0.692529      0.776677
         0.16      0.507635      0.507635      0.507635      0.700191      0.779696
         0.17      0.507635      0.507635      0.507635       0.70689      0.782584
         0.18      0.507635      0.507635      0.507635      0.712798      0.785373
         0.19      0.507635      0.507635      0.507635      0.718056      0.788099
          0.2      0.507635      0.507635      0.507635      0.722776      0.790764
         0.21      0.507635      0.507635      0.507635      0.727077       0.79336
         0.22      0.507635      0.507635      0.507635      0.731054      0.795856
         0.23      0.507635      0.507635      0.507635      0.734783      0.798167
         0.24      0.507635      0.507635      0.507635      0.738325      0.800347
         0.25      0.507635      0.507635      0.507635      0.741701      0.802454
         0.26      0.507635      0.507635      0.507635      0.744934      0.804484
         0.27      0.507635      0.507635      0.507635      0.748044      0.806447
         0.28      0.507635      0.507635      0.507675      0.751036      0.808318
         0.29      0.507635      0.507635      0.507683      0.753907      0.810033
          0.3      0.507635      0.507635      0.507694      0.756656      0.811681
         0.31      0.507635      0.507635      0.507707        0.7593      0.813323
         0.32      0.507635      0.507635      0.507724      0.761866      0.814955
         0.33      0.507635      0.507635      0.507748      0.764361      0.816585
         0.34      0.507635      0.507635      0.507786      0.766772       0.81821
         0.35      0.507635      0.507635      0.507831      0.769071      0.819747
         0.36      0.507635      0.507635       0.50789      0.771242      0.821222
         0.37      0.507635      0.507635      0.507961      0.773299      0.822679
         0.38      0.507635      0.507635      0.508051      0.775275      0.824113
         0.39      0.507635      0.507635      0.508153      0.777198      0.825524
          0.4      0.507635      0.507635      0.508265      0.779078      0.826917
         0.41      0.507635      0.507635      0.508392       0.78092      0.828301
         0.42      0.507635      0.507635      0.508531      0.782722      0.829602
         0.43      0.507635      0.507635      0.508671      0.784473      0.830859
         0.44      0.507635      0.507635      0.508812      0.786154      0.832087
         0.45      0.507635      0.507635      0.509005      0.787761       0.83328
         0.46      0.507635      0.507635       0.50929      0.789308       0.83444
         0.47      0.507635      0.507635       0.50968      0.790828      0.835591
         0.48      0.507635      0.507635      0.510074      0.792341      0.836712
         0.49      0.507635      0.507635      0.510503      0.793858      0.837776
          0.5      0.507635      0.507635      0.511021      0.795367      0.838839
         0.51      0.507635      0.507635      0.511528      0.796858      0.839915
         0.52      0.507635      0.507635      0.512016      0.798326      0.840987
         0.53      0.507635      0.507636      0.512477      0.799762      0.842038
         0.54      0.507635      0.507637      0.512963      0.801159      0.843071
         0.55      0.507635      0.507637        0.5133      0.802519      0.844069
         0.56      0.507635      0.507638      0.513708      0.803854      0.845018
         0.57      0.507635      0.507638      0.513966      0.805169      0.845991
         0.58      0.507635      0.507639      0.514156       0.80647      0.847005
         0.59      0.507635      0.507639      0.514437      0.807755      0.848043
          0.6      0.507635       0.50764      0.514596      0.809023      0.849093
         0.61      0.507635      0.507641      0.514697      0.810275      0.850148
         0.62      0.507635      0.507642       0.51532      0.811511      0.851177
         0.63      0.507635      0.507645       0.51623      0.812735      0.852136
         0.64      0.507635      0.507648      0.517462      0.813956      0.853091
         0.65      0.507635      0.507653      0.519152      0.815175      0.854067
         0.66      0.507635      0.507659      0.521207      0.816394      0.855064
         0.67      0.507635      0.507666      0.523264      0.817613      0.856075
         0.68      0.507635      0.507674      0.526044      0.818834      0.857105
         0.69      0.507635      0.507685      0.529362      0.820077      0.858093
          0.7      0.507635      0.507697      0.532859      0.821378      0.859052
         0.71      0.507635      0.507712      0.536857      0.822747      0.860038
         0.72      0.507635       0.50773      0.541382      0.824142      0.861084
         0.73      0.507635      0.507752      0.545692      0.825529      0.862217
         0.74      0.507635      0.507776      0.550647      0.826912      0.863449
         0.75      0.507635      0.507805      0.555493      0.828315      0.864744
         0.76      0.507635      0.507839      0.559911      0.829746      0.866013
         0.77      0.507635      0.507877      0.564783      0.831265      0.867302
         0.78      0.507635      0.507921      0.569598      0.831983      0.868631
         0.79      0.507635       0.50797      0.573721      0.832372      0.869998
          0.8      0.507635      0.508025      0.578079      0.832877      0.871412
         0.81      0.507635      0.508086      0.582288      0.833292      0.872807
         0.82      0.507635      0.508154      0.586042      0.833692      0.874211
         0.83      0.507635      0.508227       0.58997      0.834055      0.875774
         0.84      0.507635      0.508306      0.593425      0.834468      0.876859
         0.85      0.507635      0.508392      0.596911      0.835021      0.877124
         0.86      0.507635      0.508485      0.600286      0.835357      0.877446
         0.87      0.507635      0.508595      0.603348      0.835716       0.87769
         0.88      0.507635      0.508904      0.606428      0.835985      0.878153
         0.89      0.507635      0.509215      0.609554      0.836599      0.878356
          0.9      0.507635      0.509451       0.61219      0.836853      0.878693
         0.91      0.507635      0.509618      0.614827      0.837298      0.878921
         0.92      0.507635      0.509775      0.617582      0.837813      0.879282
         0.93      0.507635      0.509902      0.620118      0.838115      0.879556
         0.94      0.507635      0.509983      0.622443       0.83861      0.879823
         0.95      0.507635      0.510064      0.624758      0.838947      0.880172
         0.96      0.507635      0.510149      0.627121      0.839285      0.880371
         0.97      0.507635      0.510328      0.629311      0.839646       0.88058
         0.98      0.507635      0.510507      0.631296      0.840086       0.88084
         0.99      0.507635      0.510655      0.633437      0.840556      0.881121
            1      0.507635      0.510859      0.635482      0.840743      0.881282
         1.01      0.507635      0.511092      0.637185      0.841253       0.88164
         1.02      0.507635      0.511277      0.639058      0.841607      0.881821
         1.03      0.507635      0.511548      0.640931      0.842024      0.881995
         1.04      0.507635      0.511802      0.642433      0.842438      0.882335
         1.05      0.507635      0.512056      0.644238      0.842725      0.882415
         1.06      0.507635       0.51234      0.645694      0.843043      0.882674
         1.07      0.507635      0.512565      0.647294       0.84355      0.882924
         1.08      0.507635      0.512867      0.648823      0.843789      0.883193
         1.09      0.507635       0.51313      0.650182      0.844225      0.883434
          1.1      0.507635      0.513378      0.651679      0.844644      0.883638
         1.11      0.507635      0.513647      0.652954      0.844959      0.883761
         1.12      0.507635      0.513858      0.654338      0.845237      0.883958
         1.13      0.507636      0.514072      0.655686      0.845573      0.884291
         1.14      0.507636      0.514302      0.656806      0.845891      0.884521
         1.15      0.507636      0.514484      0.658144      0.846313      0.884488
         1.16      0.507636      0.514859      0.659227      0.846737       0.88491
         1.17      0.507636      0.514971      0.660503      0.846919      0.885099
         1.18      0.507636      0.515039       0.66152      0.847335      0.885323
         1.19      0.507636      0.515092      0.662745      0.847775      0.885556
          1.2      0.507636      0.515153      0.663734      0.848037      0.885721
         1.21      0.507636      0.515211      0.664856      0.848187      0.885902
         1.22      0.507636      0.515269      0.665844      0.848695      0.886407
         1.23      0.507636      0.515326      0.666796      0.848942       0.88651
         1.24      0.507636      0.515379      0.667901      0.849067      0.886589
         1.25      0.507636      0.515423      0.668827      0.849482      0.886854
         1.26      0.507636      0.515477       0.66967      0.849734      0.887137
         1.27      0.507636      0.515526      0.670685      0.849912       0.88718
         1.28      0.507636       0.51557      0.671505       0.85026       0.88751
         1.29      0.507636      0.515591      0.672446      0.850555      0.887796
          1.3      0.507636      0.515627      0.673292      0.850824      0.887789
         1.31      0.507636      0.515641      0.674069      0.851066      0.888145
         1.32      0.507637      0.515658      0.675035      0.851317      0.888196
         1.33      0.507639      0.515674      0.675764      0.851507      0.888561
         1.34       0.50764      0.515688      0.676519      0.851972      0.888686
         1.35      0.507641      0.515702      0.677456      0.852124      0.888855
         1.36      0.507642      0.515715      0.678144      0.852359      0.888867
         1.37      0.507642      0.515726      0.678964      0.852781      0.889281
         1.38      0.507643      0.515734      0.679666      0.852894      0.889369
         1.39      0.507644      0.516157      0.680379      0.853188      0.889321
          1.4      0.507646      0.516411      0.681155      0.853454       0.88975
         1.41      0.507647      0.517023      0.681813      0.853559      0.889916
         1.42      0.507648      0.517719      0.682549      0.853998       0.88991
         1.43       0.50765      0.518057      0.683261      0.854072      0.890335
         1.44      0.507652      0.518878      0.683923      0.854463       0.89029
         1.45      0.507654       0.51975      0.684599      0.854531      0.890687
         1.46      0.507657      0.520232      0.685301      0.855013      0.890681
         1.47      0.507659      0.521163      0.685932      0.855236      0.891016
         1.48      0.507663      0.522182      0.686559      0.855405      0.891083
         1.49      0.507666      0.523266      0.687293      0.855543       0.89125
          1.5       0.50767      0.524291      0.687817      0.855924      0.891426
         1.51      0.507674      0.526084      0.688427      0.856177      0.891569
         1.52      0.507679      0.527371      0.689063      0.856296      0.891826
         1.53      0.507684       0.52875      0.689645      0.856726      0.891984
         1.54       0.50769      0.530382      0.690219      0.856819      0.892089
         1.55      0.507696      0.532096      0.690794      0.857191      0.892206
         1.56      0.507703      0.533817      0.691388      0.857356      0.892306
         1.57      0.507711      0.535603      0.691964      0.857571      0.892545
         1.58       0.50772      0.537715      0.692444      0.857949      0.892665
         1.59      0.507729      0.539582      0.692976      0.858005      0.892834
          1.6       0.50774      0.541428      0.693504      0.858419      0.893223
         1.61      0.507751      0.543635      0.694064      0.858494      0.893207
         1.62      0.507764      0.545888      0.694552      0.858841      0.893441
         1.63      0.507778      0.547875       0.69507       0.85902       0.89357
         1.64      0.507793      0.549793      0.695575      0.859222      0.893787
         1.65      0.507809      0.551914      0.696088      0.859584      0.893874
         1.66      0.507827      0.554095      0.696614      0.859625      0.893927
         1.67      0.507847      0.556257      0.697107      0.860013      0.894178
         1.68      0.507868      0.558401      0.697604      0.860178      0.894165
         1.69      0.507891      0.560456      0.698032      0.860362      0.894591
          1.7      0.507915      0.562453      0.698484      0.860718      0.894785
         1.71       0.50794      0.564449       0.69895       0.86075      0.894839
         1.72      0.507968      0.566439      0.699441      0.861144      0.895144
         1.73      0.507998      0.568138      0.699925      0.861248      0.895056
         1.74       0.50803      0.569873      0.700405      0.861469      0.895522
         1.75      0.508064      0.571709       0.70088      0.861818      0.895542
         1.76      0.508101      0.573558      0.701337      0.861866      0.895668
         1.77      0.508141      0.575347      0.701781      0.862134      0.895913
         1.78      0.508183      0.577102      0.702244      0.862478      0.895813
         1.79      0.508228      0.578808      0.702651      0.862513      0.896091
          1.8      0.508275      0.580111      0.703093      0.862798      0.896318
         1.81      0.508326      0.581655      0.703516        0.8631      0.896383
         1.82      0.508379      0.583241      0.703919       0.86314      0.896692
         1.83      0.508436      0.584775      0.704322      0.863502      0.896909
         1.84      0.508495      0.585882      0.704731      0.863705      0.896814
         1.85      0.508557      0.587437      0.705158      0.863781      0.897157
         1.86      0.508622      0.588889      0.705585      0.864131      0.897186
         1.87       0.50869      0.590012      0.706011      0.864352      0.897273
         1.88      0.508761      0.591315      0.706437       0.86442      0.897638
         1.89      0.508835       0.59266      0.706864      0.864808      0.897716
          1.9      0.508911      0.593578      0.707289      0.864949      0.897718
         1.91       0.50899      0.594949      0.707714      0.865025      0.898003
         1.92      0.509071      0.596092      0.708139      0.865402      0.898112
         1.93      0.509154      0.597165      0.708562      0.865551      0.898261
         1.94      0.509285      0.598385      0.709001      0.865592      0.898531
         1.95      0.509371       0.59931      0.709367      0.865852      0.898519
         1.96      0.509458      0.600515      0.709759      0.866153      0.898579
         1.97      0.509545      0.601374      0.710166      0.866157      0.898923
         1.98      0.509634      0.602305       0.71059      0.866315      0.899062
         1.99      0.509723      0.603313      0.711016       0.86664      0.898978
            2      0.509814      0.604097      0.711437      0.866787      0.899332
         2.01      0.509951      0.605158      0.711857      0.866834      0.899549
         2.02      0.510042      0.605914      0.712275      0.867064      0.899404
         2.03      0.510134       0.60692       0.71269      0.867368      0.899529
         2.04      0.510226       0.60767      0.713073      0.867421      0.899847
         2.05      0.510319      0.608385      0.713436      0.867535      0.900026
         2.06      0.510415      0.609368      0.713827      0.867824      0.899859
         2.07      0.510555      0.610061      0.714237      0.868121      0.900157
         2.08       0.51065      0.610738      0.714644      0.868139      0.900405
         2.09      0.510747      0.611661      0.715051      0.868254      0.900387
          2.1      0.510846      0.612339      0.715454      0.868545      0.900323
         2.11      0.510947      0.612988      0.715866      0.868821      0.900666
         2.12      0.511095      0.613568      0.716187      0.868899      0.900875
         2.13      0.511196      0.614513       0.71656      0.868972      0.900963
         2.14      0.511299      0.615135       0.71696      0.869143      0.900886
         2.15      0.511404      0.615747      0.717358      0.869473      0.901094
         2.16      0.511513      0.616328      0.717753      0.869624       0.90132
         2.17      0.511674      0.617097      0.718145      0.869659      0.901509
         2.18      0.511791      0.617754      0.718554      0.869767      0.901388
         2.19      0.511912      0.618319      0.718933      0.869966      0.901474
          2.2      0.512039      0.618872      0.719244      0.870247       0.90178
         2.21      0.512219      0.619439      0.719609      0.870434      0.901997
         2.22      0.512357      0.619987      0.719979      0.870567      0.902093
         2.23      0.512501       0.62074      0.720345      0.870757       0.90205
         2.24      0.512698      0.621266      0.720716      0.870866      0.902125
         2.25      0.512855      0.621809      0.721098      0.870923      0.902246
         2.26      0.513018      0.622327      0.721467      0.871048       0.90227
         2.27      0.513235      0.622839      0.721838      0.871166      0.902392
         2.28      0.513412      0.623345      0.722216      0.871304       0.90267
         2.29      0.513596      0.623846      0.722591       0.87157      0.902775
          2.3      0.513833      0.624403       0.72292      0.871798      0.902973
         2.31      0.514465      0.625047      0.723243      0.871999      0.903109
         2.32      0.514711      0.625538      0.723593       0.87219      0.903239
         2.33      0.514917      0.626022       0.72395      0.872257      0.903199
         2.34      0.515556      0.626502      0.724316      0.872323      0.903214
         2.35      0.515809      0.627029      0.724684      0.872431      0.903258
         2.36      0.516021      0.627471      0.725052        0.8726      0.903436
         2.37      0.516665       0.62794      0.725376      0.872833      0.903662
         2.38      0.516923      0.628406       0.72569      0.873105      0.903857
         2.39      0.517566      0.628868      0.726049      0.873311       0.90401
          2.4      0.517826      0.629328      0.726407      0.873433      0.904101
         2.41      0.518042      0.629783      0.726761      0.873554       0.90409
         2.42      0.518685      0.630235      0.727058      0.873627      0.904045
         2.43      0.518944      0.630684      0.727391      0.873721      0.904115
         2.44       0.51916      0.631129      0.727746      0.873847      0.904263
         2.45      0.519798      0.631573      0.728098      0.874004      0.904506
         2.46      0.520053      0.632013      0.728433      0.874159      0.904761
         2.47      0.520265       0.63245      0.728712      0.874349      0.904904
         2.48      0.520896       0.63288      0.729061      0.874599      0.905033
         2.49      0.521146      0.633294      0.729412      0.874741      0.905131
          2.5      0.521352      0.633725      0.729747      0.874839      0.905244
         2.51      0.521976      0.634154      0.730063      0.874916       0.90531
         2.52      0.522219      0.634578      0.730361      0.875048       0.90548
         2.53      0.522418      0.635001      0.730693      0.875209      0.905578
         2.54      0.523031      0.635423      0.731038      0.875366      0.905699
         2.55      0.523266      0.635775      0.731336       0.87552      0.905754
         2.56      0.523457      0.636061      0.731652      0.875669      0.905846
         2.57       0.52406      0.636465       0.73197      0.875826      0.905975
         2.58      0.524285      0.636876      0.732305      0.875972      0.906059
         2.59      0.524466      0.637285      0.732628      0.876112      0.906158
          2.6      0.524644      0.637671      0.732951      0.876261      0.906256
         2.61      0.525232      0.638071      0.733294       0.87647      0.906354
         2.62      0.525445      0.638473      0.733549      0.876781      0.906476
         2.63      0.525615      0.638877      0.733828      0.876877      0.906521
         2.64      0.526195      0.639281      0.734139      0.876858      0.906445
         2.65      0.526354      0.639648      0.734453      0.876962      0.906605
         2.66      0.526552      0.640043      0.734764      0.877147      0.906912
         2.67      0.526702      0.640422      0.735073       0.87733      0.907059
         2.68      0.527224      0.640813       0.73536      0.877523      0.907119
         2.69      0.527369      0.641185      0.735661      0.877693      0.907125
          2.7      0.527551      0.641589      0.735958      0.877898      0.907143
         2.71      0.527688      0.641712       0.73624      0.877782      0.907174
         2.72       0.52782      0.642114      0.736509       0.87796       0.90728
         2.73      0.528356      0.642496      0.736835      0.878221      0.907598
         2.74      0.528517      0.642858      0.737098      0.878462      0.907763
         2.75      0.528639      0.643233      0.737413      0.878547      0.907711
         2.76      0.528749      0.643607      0.737705        0.8786      0.907681
         2.77       0.52886      0.643946      0.738006       0.87863      0.907895
         2.78       0.52935      0.644321      0.738305      0.878769      0.908088
         2.79      0.529463      0.644695      0.738596      0.878935      0.908306
          2.8      0.529611      0.645052      0.738873      0.879096      0.908386
         2.81      0.529717      0.645416      0.739149      0.879336       0.90843
         2.82      0.529814       0.64576      0.739449      0.879565      0.908445
         2.83      0.530277      0.646037      0.739739      0.879693      0.908452
         2.84      0.530378      0.646276      0.740025      0.879801      0.908448
         2.85      0.530464      0.646612      0.740308      0.879891      0.908626
         2.86      0.530587      0.646966      0.740572      0.879906      0.908732
         2.87      0.530663      0.647304      0.740882      0.879977      0.908891
         2.88      0.530729      0.647656      0.741166      0.880112      0.909126
         2.89      0.530794       0.64798      0.741438      0.880262      0.909314
          2.9      0.530842      0.648328      0.741711      0.880427      0.909382
         2.91      0.530889       0.64866      0.741975      0.880619      0.909465
         2.92        0.5313      0.649006      0.742237       0.88088      0.909503
         2.93      0.531349      0.649337      0.742489      0.880928      0.909488
         2.94      0.531409      0.649587       0.74275      0.880878      0.909429
         2.95      0.531515      0.649838       0.74305       0.88105      0.909621
         2.96       0.53158      0.650163      0.743352      0.881258      0.909952
         2.97      0.531616      0.650504      0.743599      0.881516      0.910009
         2.98      0.531624      0.650822      0.743854      0.881499      0.909949
         2.99      0.531624      0.651142      0.744107      0.881501      0.909917
            3      0.531622      0.651463      0.744355      0.881727      0.910134
         3.01      0.531595      0.651798      0.744645      0.881987      0.910425
         3.02      0.531581      0.652119      0.744852      0.881875       0.91037
         3.03      0.531576      0.652458      0.745104      0.881985      0.910249
         3.04      0.531578       0.65278      0.745335      0.882249      0.910513
         3.05      0.531598      0.653046      0.745626      0.882419      0.910755
         3.06      0.531647      0.653276      0.745888      0.882367      0.910637
         3.07      0.531689      0.653595      0.746149      0.882448      0.910599
         3.08      0.531728      0.653911      0.746338      0.882667        0.9109
         3.09       0.53176      0.654243      0.746587      0.882909      0.911116
          3.1      0.532184      0.654562      0.746845      0.882768      0.911016
         3.11      0.532292      0.654897      0.747066      0.882896      0.910917
         3.12      0.532458      0.655205      0.747324      0.883069      0.911157
         3.13      0.532552      0.655527      0.747539       0.88336       0.91141
         3.14      0.532649      0.655848      0.747773      0.883287      0.911378
         3.15       0.53311      0.656184       0.74798      0.883318      0.911229
         3.16      0.533207      0.656506      0.748243      0.883497      0.911431
         3.17      0.533344      0.656825       0.74847      0.883743      0.911741
         3.18      0.533432      0.657142      0.748708       0.88374      0.911736
         3.19      0.533507      0.657474      0.748925      0.883797      0.911567
          3.2      0.533591      0.657792      0.749182      0.884115       0.91172
         3.21      0.534036      0.658103      0.749364      0.883963      0.912052
         3.22      0.534109      0.658364      0.749589      0.884283       0.91178
         3.23       0.53424      0.658606      0.749845      0.884148      0.912164
         3.24      0.534362      0.658844      0.750079       0.88448      0.912081
         3.25      0.534916      0.659195      0.750288      0.884352      0.912166
         3.26      0.535135      0.659509      0.750534      0.884607       0.91229
         3.27      0.535755      0.659821      0.750715      0.884669      0.912283
         3.28      0.536036      0.660132      0.750933      0.884693      0.912488
         3.29      0.536713      0.660442      0.751171      0.884977      0.912379
          3.3       0.53705      0.660769      0.751428      0.884986      0.912733
         3.31      0.537809      0.661083        0.7516      0.884993      0.912543
         3.32      0.538444      0.661414      0.751869      0.885298      0.912606
         3.33      0.538941      0.661713      0.752055      0.885141      0.912963
         3.34      0.539749      0.662023      0.752304      0.885451      0.912778
         3.35      0.540534       0.66233       0.75251      0.885353      0.912861
         3.36      0.540973      0.662636      0.752758      0.885709      0.913023
         3.37      0.541827      0.662944      0.752959      0.885652      0.912995
         3.38      0.542698      0.663261      0.753204      0.885645       0.91307
         3.39       0.54359      0.663579      0.753449      0.886035      0.913357
          3.4      0.544467      0.663898      0.753653      0.886015      0.913085
         3.41      0.545405      0.664213      0.753867      0.886008      0.913384
         3.42      0.546368        0.6646      0.754088      0.886111      0.913502
         3.43      0.547471      0.664936      0.754359      0.886461       0.91335
         3.44      0.548443      0.665251       0.75456       0.88643       0.91349
         3.45      0.549519      0.665536      0.754772      0.886466      0.913822
         3.46      0.550624      0.665849       0.75497      0.886495      0.913648
         3.47      0.551758      0.666087      0.755271      0.886595      0.913667
         3.48      0.553078       0.66637      0.755475      0.886969      0.913771
         3.49      0.554592      0.666682      0.755687      0.886919      0.913925
          3.5      0.555752      0.666969      0.755893      0.886923      0.914125
         3.51      0.556977      0.667281      0.756189      0.887159      0.914216
         3.52      0.558703       0.66759      0.756388      0.887188      0.914173
         3.53      0.559919      0.667895        0.7566      0.887267      0.914217