# Probe 0 (1 0 0)
# Probe 1 (140 0 0)
# Probe 2 (200 0 0)
# Probe 3 (250 0 0)
# Probe 4 (255 0 0)
#       Probe             0             1             2             3             4
#        Time
            0   3.59583e+06   3.59583e+06   3.59583e+06   3.59583e+06   3.59583e+06
         0.01   3.56225e+06   3.56225e+06   3.56225e+06   3.56225e+06   2.67744e+06
         0.02   3.56225e+06   3.56225e+06   3.56225e+06   3.56223e+06   1.78033e+06
         0.03   3.56225e+06   3.56225e+06   3.56225e+06   3.55826e+06   1.53843e+06
         0.04   3.56225e+06   3.56225e+06   3.56225e+06   3.50201e+06   1.44151e+06
