# Probe 0 (1 0 0)
# Probe 1 (140 0 0)
# Probe 2 (200 0 0)
# Probe 3 (250 0 0)
# Probe 4 (255 0 0)
#       Probe             0             1             2             3             4
#        Time
            0   3.62324e+06   3.62324e+06   3.62324e+06   3.62324e+06   3.62324e+06
         0.01   3.59036e+06   3.59036e+06   3.59036e+06   3.59036e+06   2.78196e+06
         0.02   3.59036e+06   3.59036e+06   3.59036e+06   3.58993e+06   1.95012e+06
         0.03   3.59036e+06   3.59036e+06   3.59036e+06   3.56307e+06   1.68455e+06
         0.04   3.59036e+06   3.59036e+06   3.59036e+06   3.51287e+06    1.5669e+06
         0.05   3.59036e+06   3.59036e+06   3.59036e+06   3.42804e+06   1.50998e+06
         0.06   3.59036e+06   3.59036e+06   3.59036e+06   3.21108e+06   1.48317e+06
         0.07   3.59036e+06   3.59036e+06   3.59036e+06   2.91686e+06   1.47401e+06
         0.08   3.59036e+06   3.59036e+06   3.59036e+06    2.6788e+06   1.47459e+06
         0.09   3.59036e+06   3.59036e+06   3.59036e+06   2.50699e+06   1.47985e+06
          0.1   3.59036e+06   3.59036e+06   3.59036e+06   2.38201e+06   1.48656e+06
         0.11   3.59036e+06   3.59036e+06   3.59036e+06   2.28806e+06   1.49351e+06
         0.12   3.59036e+06   3.59036e+06   3.59036e+06   2.21559e+06   1.49972e+06
         0.13   3.59036e+06   3.59036e+06   3.59036e+06    2.1585e+06   1.50393e+06
         0.14   3.59036e+06   3.59036e+06   3.59036e+06    2.1127e+06   1.50591e+06
         0.15   3.59036e+06   3.59036e+06   3.59036e+06   2.07595e+06   1.50611e+06
         0.16   3.59036e+06   3.59036e+06   3.59036e+06   2.04641e+06   1.50531e+06
         0.17   3.59036e+06   3.59036e+06   3.59036e+06   2.02326e+06   1.50467e+06
         0.18   3.59036e+06   3.59036e+06   3.59036e+06   2.00499e+06   1.50331e+06
         0.19   3.59036e+06   3.59036e+06   3.59036e+06   1.99034e+06   1.50115e+06
          0.2   3.59036e+06   3.59036e+06   3.59036e+06    1.9785e+06   1.49839e+06
         0.21   3.59036e+06   3.59036e+06   3.59036e+06   1.96871e+06   1.49515e+06
         0.22   3.59036e+06   3.59036e+06   3.59036e+06    1.9604e+06   1.49227e+06
         0.23   3.59036e+06   3.59036e+06   3.59036e+06   1.95322e+06   1.49008e+06
         0.24   3.59036e+06   3.59036e+06   3.59035e+06   1.94672e+06   1.48754e+06
         0.25   3.59036e+06   3.59036e+06   3.59029e+06   1.94066e+06   1.48453e+06
         0.26   3.59036e+06   3.59036e+06   3.59006e+06   1.93484e+06    1.4813e+06
         0.27   3.59036e+06   3.59036e+06   3.58962e+06   1.92913e+06   1.47791e+06
         0.28   3.59036e+06   3.59036e+06   3.58906e+06   1.92346e+06   1.47501e+06
         0.29   3.59036e+06   3.59036e+06   3.58839e+06   1.91775e+06   1.47302e+06
          0.3   3.59036e+06   3.59036e+06   3.58755e+06   1.91206e+06   1.47087e+06
         0.31   3.59036e+06   3.59036e+06   3.58649e+06   1.90644e+06    1.4684e+06
         0.32   3.59036e+06   3.59036e+06   3.58516e+06   1.90093e+06   1.46572e+06
         0.33   3.59036e+06   3.59036e+06   3.58353e+06   1.89557e+06   1.46295e+06
         0.34   3.59036e+06   3.59036e+06   3.58155e+06   1.89035e+06   1.46008e+06
         0.35   3.59036e+06   3.59036e+06    3.5792e+06   1.88526e+06   1.45823e+06
         0.36   3.59036e+06   3.59036e+06   3.57645e+06   1.88027e+06   1.45672e+06
         0.37   3.59036e+06   3.59036e+06   3.57332e+06   1.87538e+06   1.45489e+06
         0.38   3.59036e+06   3.59036e+06   3.56982e+06   1.87062e+06   1.45278e+06
         0.39   3.59036e+06   3.59036e+06     3.566e+06   1.86605e+06    1.4505e+06
          0.4   3.59036e+06   3.59036e+06   3.56196e+06   1.86168e+06   1.44807e+06
         0.41   3.59036e+06   3.59036e+06   3.55782e+06   1.85746e+06   1.44577e+06
         0.42   3.59036e+06   3.59036e+06   3.55368e+06   1.85338e+06   1.44445e+06
         0.43   3.59036e+06   3.59036e+06   3.54969e+06   1.84942e+06   1.44304e+06
         0.44   3.59036e+06   3.59036e+06   3.54594e+06    1.8456e+06   1.44129e+06
         0.45   3.59036e+06   3.59036e+06   3.54059e+06   1.84196e+06    1.4393e+06
         0.46   3.59036e+06   3.59036e+06   3.53519e+06    1.8385e+06   1.43721e+06
         0.47   3.59036e+06   3.59036e+06   3.52745e+06   1.83517e+06   1.43498e+06
         0.48   3.59036e+06   3.59036e+06   3.52207e+06   1.83195e+06   1.43338e+06
         0.49   3.59036e+06   3.59036e+06   3.51399e+06   1.82886e+06   1.43249e+06
          0.5   3.59036e+06   3.59036e+06   3.50647e+06   1.82591e+06   1.43136e+06
         0.51   3.59036e+06   3.59036e+06   3.49809e+06    1.8231e+06   1.42992e+06
         0.52   3.59036e+06   3.59035e+06   3.49232e+06   1.82039e+06   1.42832e+06
         0.53   3.59036e+06   3.59034e+06   3.48586e+06   1.81777e+06    1.4267e+06
         0.54   3.59036e+06   3.59032e+06   3.47953e+06   1.81526e+06   1.42499e+06
         0.55   3.59036e+06   3.59027e+06   3.47515e+06   1.81286e+06    1.4239e+06
         0.56   3.59036e+06    3.5902e+06    3.4711e+06   1.81059e+06    1.4235e+06
         0.57   3.59036e+06   3.59012e+06   3.46842e+06   1.80841e+06   1.42288e+06
         0.58   3.59036e+06   3.59003e+06   3.46582e+06   1.80632e+06   1.42198e+06
         0.59   3.59036e+06   3.58992e+06   3.46344e+06   1.80433e+06   1.42093e+06
          0.6   3.59036e+06   3.58979e+06   3.46211e+06   1.80247e+06   1.41985e+06
         0.61   3.59036e+06   3.58964e+06   3.46145e+06   1.80075e+06   1.41865e+06
         0.62   3.59036e+06   3.58947e+06   3.45831e+06   1.79914e+06   1.41798e+06
         0.63   3.59036e+06   3.58926e+06    3.4531e+06   1.79763e+06   1.41807e+06
         0.64   3.59036e+06   3.58902e+06   3.44095e+06   1.79621e+06   1.41794e+06
         0.65   3.59036e+06   3.58874e+06   3.44203e+06   1.79491e+06   1.41754e+06
         0.66   3.59036e+06   3.58842e+06    3.4323e+06   1.79373e+06     1.417e+06
         0.67   3.59036e+06   3.58804e+06   3.41693e+06   1.79266e+06   1.41642e+06
         0.68   3.59036e+06   3.58762e+06   3.40575e+06   1.79154e+06   1.41571e+06
         0.69   3.59036e+06   3.58713e+06   3.39997e+06   1.78991e+06     1.416e+06
          0.7   3.59036e+06   3.58657e+06   3.38316e+06   1.78709e+06   1.41659e+06
         0.71   3.59036e+06   3.58593e+06   3.35779e+06   1.78302e+06   1.41678e+06
         0.72   3.59036e+06   3.58522e+06   3.34948e+06   1.77846e+06    1.4163e+06
         0.73   3.59036e+06   3.58441e+06    3.3191e+06   1.77399e+06   1.41484e+06
         0.74   3.59036e+06    3.5835e+06    3.3001e+06   1.76967e+06   1.41228e+06
         0.75   3.59036e+06   3.58249e+06   3.28816e+06   1.76539e+06   1.40949e+06
         0.76   3.59036e+06   3.58137e+06    3.2595e+06   1.76104e+06   1.40743e+06
         0.77   3.59036e+06   3.58013e+06   3.23778e+06   1.75629e+06   1.40507e+06
         0.78   3.59036e+06   3.57878e+06    3.2232e+06   1.75634e+06   1.40227e+06
         0.79   3.59036e+06    3.5773e+06   3.20308e+06   1.74988e+06   1.39911e+06
          0.8   3.59036e+06    3.5757e+06   3.18005e+06    1.7445e+06   1.39551e+06
         0.81   3.59036e+06   3.57398e+06   3.16987e+06   1.74135e+06   1.39273e+06
         0.82   3.59036e+06   3.57216e+06   3.14385e+06   1.73878e+06   1.38983e+06
         0.83   3.59036e+06   3.57022e+06   3.13565e+06   1.73552e+06   1.38626e+06
         0.84   3.59036e+06    3.5682e+06   3.11123e+06   1.73812e+06   1.38286e+06
         0.85   3.59036e+06    3.5661e+06   3.10153e+06   1.72751e+06   1.37949e+06
         0.86   3.59036e+06   3.56395e+06   3.08192e+06    1.7231e+06   1.37698e+06
         0.87   3.59036e+06   3.56176e+06   3.06596e+06   1.71908e+06   1.37545e+06
         0.88   3.59036e+06   3.55955e+06   3.05682e+06   1.71874e+06   1.37172e+06
         0.89   3.59036e+06   3.55735e+06   3.04445e+06   1.71894e+06   1.36971e+06
          0.9   3.59036e+06   3.55518e+06   3.02554e+06   1.71888e+06   1.36608e+06
         0.91   3.59036e+06   3.55308e+06   3.01621e+06   1.70757e+06   1.36327e+06
         0.92   3.59036e+06   3.55106e+06   3.00686e+06   1.70425e+06   1.36174e+06
         0.93   3.59036e+06   3.54914e+06   2.99001e+06   1.70025e+06   1.35687e+06
         0.94   3.59036e+06   3.54733e+06   2.97733e+06   1.70081e+06   1.35457e+06
         0.95   3.59036e+06   3.54567e+06   2.96993e+06   1.69453e+06    1.3529e+06
         0.96   3.59036e+06   3.54364e+06   2.96115e+06   1.69241e+06    1.3525e+06
         0.97   3.59036e+06   3.54023e+06   2.94591e+06   1.68935e+06   1.34888e+06
         0.98   3.59036e+06   3.53719e+06   2.93518e+06   1.68438e+06   1.34592e+06
         0.99   3.59036e+06   3.53497e+06    2.9305e+06   1.68252e+06   1.34358e+06
            1   3.59036e+06   3.53245e+06   2.91896e+06   1.68719e+06   1.34299e+06
         1.01   3.59036e+06   3.52721e+06   2.90682e+06   1.67721e+06   1.33916e+06
         1.02   3.59036e+06   3.52421e+06   2.90254e+06   1.68409e+06   1.33959e+06
         1.03   3.59036e+06    3.5203e+06   2.89236e+06   1.67105e+06   1.33784e+06
         1.04   3.59036e+06   3.51633e+06   2.88163e+06   1.66902e+06   1.33591e+06
         1.05   3.59036e+06   3.51423e+06   2.87825e+06   1.67498e+06   1.33183e+06
         1.06   3.59036e+06   3.50786e+06   2.86524e+06   1.66709e+06   1.33292e+06
         1.07   3.59036e+06   3.50452e+06   2.86215e+06   1.66152e+06   1.32918e+06
         1.08   3.59036e+06   3.50047e+06   2.85109e+06    1.6664e+06   1.32532e+06
         1.09   3.59036e+06   3.49702e+06   2.84659e+06   1.65443e+06   1.32661e+06
          1.1   3.59036e+06   3.49537e+06   2.84015e+06   1.65273e+06   1.32304e+06
         1.11   3.59036e+06   3.48933e+06   2.82955e+06   1.65736e+06    1.3228e+06
         1.12   3.59036e+06   3.48718e+06   2.82688e+06   1.65544e+06   1.32018e+06
         1.13   3.59036e+06   3.48647e+06   2.82047e+06   1.65221e+06   1.31605e+06
         1.14   3.59036e+06   3.48061e+06   2.81284e+06   1.64476e+06   1.31582e+06
         1.15   3.59036e+06   3.47905e+06   2.80773e+06   1.64895e+06   1.31689e+06
         1.16   3.59036e+06   3.47736e+06   2.80069e+06   1.63617e+06   1.31009e+06
         1.17   3.59036e+06   3.47537e+06   2.79591e+06   1.64155e+06   1.30761e+06
         1.18   3.59036e+06    3.4729e+06   2.78934e+06   1.64087e+06   1.31034e+06
         1.19   3.59036e+06   3.47153e+06   2.78502e+06    1.6318e+06   1.30489e+06
          1.2   3.59035e+06   3.47033e+06   2.77905e+06   1.62627e+06   1.30578e+06
         1.21   3.59035e+06   3.46951e+06     2.771e+06   1.63183e+06   1.31153e+06
         1.22   3.59035e+06   3.46862e+06   2.76789e+06   1.62692e+06   1.30006e+06
         1.23   3.59034e+06   3.46804e+06   2.76056e+06   1.61895e+06   1.29546e+06
         1.24   3.59033e+06   3.46751e+06   2.75891e+06   1.62086e+06   1.29969e+06
         1.25   3.59032e+06   3.46707e+06   2.75401e+06   1.62253e+06    1.2977e+06
         1.26   3.59031e+06   3.46642e+06   2.74592e+06    1.6116e+06    1.2917e+06
         1.27   3.59029e+06    3.4658e+06   2.74427e+06      1.62e+06    1.2924e+06
         1.28   3.59028e+06   3.46411e+06    2.7394e+06    1.6074e+06   1.29184e+06
         1.29   3.59026e+06   3.46409e+06   2.73226e+06   1.61359e+06   1.28484e+06
          1.3   3.59024e+06   3.46363e+06   2.73008e+06   1.60387e+06   1.29557e+06
         1.31   3.59021e+06   3.46322e+06   2.72571e+06   1.60048e+06   1.28109e+06
         1.32   3.59018e+06   3.46286e+06   2.72258e+06    1.5984e+06   1.29188e+06
         1.33   3.59015e+06   3.46261e+06   2.71723e+06   1.60589e+06   1.28079e+06
         1.34   3.59012e+06   3.46239e+06    2.7132e+06   1.59589e+06   1.27609e+06
         1.35   3.59008e+06   3.46217e+06   2.70867e+06   1.59185e+06    1.2746e+06
         1.36   3.59003e+06   3.46196e+06   2.70278e+06   1.60041e+06    1.2777e+06
         1.37   3.58998e+06   3.46168e+06   2.70177e+06   1.58923e+06   1.27333e+06
         1.38   3.58993e+06   3.46141e+06   2.69679e+06   1.58536e+06   1.26973e+06
         1.39   3.58987e+06   3.46183e+06    2.6932e+06   1.59338e+06   1.27601e+06
          1.4    3.5898e+06   3.45167e+06   2.68729e+06   1.58065e+06   1.27164e+06
         1.41   3.58973e+06   3.45819e+06   2.68555e+06   1.58845e+06    1.2637e+06
         1.42   3.58965e+06   3.45623e+06   2.67985e+06   1.57783e+06    1.2771e+06
         1.43   3.58956e+06    3.4516e+06   2.67863e+06   1.58542e+06   1.26048e+06
         1.44   3.58946e+06   3.44851e+06   2.67457e+06   1.57276e+06   1.26319e+06
         1.45   3.58935e+06   3.44696e+06   2.66927e+06   1.57899e+06   1.25946e+06
         1.46   3.58923e+06   3.43952e+06    2.6683e+06   1.57119e+06   1.25893e+06
         1.47   3.58911e+06   3.43627e+06   2.66446e+06   1.57167e+06     1.256e+06
         1.48   3.58896e+06   3.43232e+06   2.65915e+06   1.57444e+06   1.25314e+06
         1.49   3.58881e+06    3.4273e+06   2.65752e+06   1.57136e+06    1.2623e+06
          1.5   3.58864e+06    3.4179e+06   2.65424e+06    1.5612e+06   1.25628e+06
         1.51   3.58846e+06   3.42049e+06   2.65105e+06   1.56696e+06   1.25236e+06
         1.52   3.58826e+06   3.41257e+06   2.64865e+06   1.56239e+06   1.24707e+06
         1.53   3.58804e+06   3.40607e+06   2.64511e+06   1.55678e+06   1.24773e+06
         1.54   3.58781e+06   3.39248e+06   2.64198e+06   1.56207e+06   1.24633e+06
         1.55   3.58755e+06   3.39307e+06   2.63894e+06   1.55196e+06   1.24531e+06
         1.56   3.58727e+06   3.37781e+06   2.63562e+06   1.55957e+06   1.25541e+06
         1.57   3.58697e+06   3.37609e+06    2.6323e+06   1.54985e+06   1.24988e+06
         1.58   3.58665e+06   3.37073e+06   2.62785e+06   1.55043e+06   1.25222e+06
         1.59    3.5863e+06   3.35425e+06   2.62487e+06    1.5515e+06   1.24395e+06
          1.6   3.58591e+06   3.34969e+06   2.62201e+06   1.54345e+06   1.23603e+06
         1.61    3.5855e+06   3.34334e+06   2.62059e+06   1.54939e+06    1.2438e+06
         1.62   3.58506e+06   3.33596e+06   2.61889e+06   1.53849e+06   1.23488e+06
         1.63   3.58458e+06    3.3189e+06   2.61605e+06   1.54606e+06   1.23671e+06
         1.64   3.58407e+06   3.30843e+06   2.61308e+06    1.5364e+06    1.2276e+06
         1.65   3.58351e+06   3.30449e+06   2.61036e+06   1.53747e+06   1.23475e+06
         1.66   3.58292e+06   3.29664e+06   2.60637e+06   1.53919e+06   1.23575e+06
         1.67   3.58228e+06   3.28877e+06   2.60481e+06   1.52978e+06   1.23059e+06
         1.68    3.5816e+06   3.28106e+06   2.60092e+06   1.53701e+06   1.23549e+06
         1.69   3.58086e+06   3.27249e+06   2.59671e+06   1.52742e+06   1.22407e+06
          1.7   3.58008e+06   3.26177e+06   2.59378e+06   1.52853e+06   1.22685e+06
         1.71   3.57925e+06   3.25361e+06   2.59258e+06   1.53031e+06    1.2217e+06
         1.72   3.57836e+06   3.24247e+06   2.59018e+06   1.52136e+06    1.2209e+06
         1.73   3.57741e+06    3.2302e+06   2.58785e+06   1.52917e+06   1.22364e+06
         1.74    3.5764e+06   3.22155e+06   2.58553e+06   1.51847e+06   1.21678e+06
         1.75   3.57534e+06   3.21813e+06   2.58323e+06   1.51831e+06   1.21951e+06
         1.76    3.5742e+06   3.21156e+06   2.58077e+06   1.52347e+06   1.21278e+06
         1.77   3.57301e+06   3.20507e+06   2.57826e+06   1.51283e+06    1.2113e+06
         1.78   3.57175e+06   3.19898e+06   2.57582e+06   1.51313e+06   1.21543e+06
         1.79   3.57042e+06   3.19034e+06   2.57081e+06   1.51825e+06   1.20893e+06
          1.8   3.56902e+06   3.17654e+06   2.56832e+06   1.50721e+06   1.21931e+06
         1.81   3.56755e+06   3.17456e+06   2.56567e+06   1.51083e+06   1.21707e+06
         1.82   3.56601e+06   3.16969e+06   2.56301e+06    1.5117e+06   1.20738e+06
         1.83   3.56441e+06   3.16308e+06   2.56045e+06   1.50171e+06   1.20487e+06
         1.84   3.56274e+06   3.15123e+06    2.5594e+06   1.50911e+06   1.20494e+06
         1.85     3.561e+06   3.14954e+06    2.5571e+06   1.50647e+06   1.19892e+06
         1.86    3.5592e+06   3.14555e+06   2.55476e+06   1.49676e+06    1.2062e+06
         1.87   3.55733e+06   3.13218e+06   2.55246e+06   1.50359e+06   1.19969e+06
         1.88   3.55541e+06   3.13166e+06   2.55021e+06    1.5005e+06   1.19664e+06
         1.89   3.55343e+06   3.12833e+06   2.54792e+06   1.49222e+06   1.20057e+06
          1.9    3.5514e+06   3.11655e+06   2.54573e+06   1.49957e+06   1.19532e+06
         1.91   3.54932e+06    3.1162e+06    2.5436e+06   1.49386e+06   1.19492e+06
         1.92   3.54721e+06   3.10568e+06   2.54143e+06   1.48715e+06   1.20182e+06
         1.93   3.54505e+06   3.10517e+06   2.53928e+06   1.49346e+06   1.18914e+06
         1.94   3.54599e+06   3.10121e+06   2.53588e+06   1.49265e+06   1.18934e+06
         1.95   3.54392e+06   3.09516e+06   2.53215e+06   1.48277e+06   1.19858e+06
         1.96   3.54183e+06   3.08906e+06   2.52968e+06   1.48469e+06   1.18855e+06
         1.97   3.53972e+06   3.08621e+06   2.52875e+06    1.4894e+06   1.18416e+06
         1.98   3.53761e+06    3.0764e+06   2.52667e+06   1.48055e+06   1.18989e+06
         1.99    3.5355e+06   3.07763e+06   2.52467e+06   1.47614e+06   1.19185e+06
            2    3.5334e+06   3.07088e+06   2.52262e+06    1.4825e+06   1.17973e+06
         2.01    3.5344e+06   3.06953e+06   2.52062e+06   1.48242e+06   1.18067e+06
         2.02   3.53235e+06   3.06319e+06   2.51859e+06   1.47179e+06   1.19122e+06
         2.03   3.53031e+06    3.0606e+06   2.51657e+06   1.47189e+06   1.18129e+06
         2.04   3.52827e+06   3.05629e+06   2.51192e+06   1.47896e+06    1.1755e+06
         2.05   3.52622e+06   3.05063e+06   2.50946e+06   1.47502e+06   1.17765e+06
         2.06   3.52412e+06   3.05023e+06   2.50875e+06   1.46537e+06   1.18384e+06
         2.07    3.5251e+06   3.04477e+06   2.50687e+06   1.46765e+06   1.17175e+06
         2.08   3.52297e+06   3.03967e+06   2.50497e+06   1.47289e+06   1.16994e+06
         2.09    3.5207e+06   3.03806e+06   2.50306e+06   1.46867e+06   1.17937e+06
          2.1   3.51829e+06   3.03478e+06   2.50111e+06   1.45926e+06   1.17953e+06
         2.11   3.51576e+06   3.03008e+06   2.49802e+06   1.45867e+06   1.16657e+06
         2.12   3.51617e+06   3.02329e+06   2.49447e+06   1.46664e+06   1.16487e+06
         2.13   3.51364e+06    3.0244e+06   2.49363e+06   1.46441e+06   1.17236e+06
         2.14   3.51097e+06   3.02143e+06    2.4917e+06   1.45731e+06   1.17597e+06
         2.15   3.50815e+06   3.01719e+06   2.48982e+06   1.45233e+06   1.16359e+06
         2.16   3.50512e+06   3.01293e+06   2.48798e+06   1.45773e+06    1.1607e+06
         2.17   3.50511e+06   3.00728e+06   2.48619e+06   1.45976e+06   1.16372e+06
         2.18     3.502e+06    3.0098e+06   2.48439e+06   1.45619e+06   1.17188e+06
         2.19   3.49866e+06   3.00576e+06   2.48125e+06   1.44809e+06   1.16435e+06
          2.2   3.49508e+06   3.00185e+06   2.47771e+06   1.44445e+06   1.15585e+06
         2.21   3.49454e+06   2.99833e+06   2.47562e+06   1.44358e+06   1.15486e+06
         2.22   3.49085e+06   2.99219e+06   2.47354e+06   1.44173e+06   1.15747e+06
         2.23    3.4869e+06    2.9941e+06   2.47283e+06   1.44253e+06   1.16645e+06
         2.24   3.48582e+06   2.99056e+06   2.47084e+06    1.4467e+06   1.16621e+06
         2.25   3.48171e+06   2.98884e+06   2.46903e+06   1.44901e+06   1.16462e+06
         2.26   3.47733e+06   2.98558e+06   2.46709e+06   1.44755e+06   1.16178e+06
         2.27   3.47581e+06   2.98242e+06   2.46521e+06   1.44428e+06   1.15862e+06
         2.28   3.47126e+06   2.97936e+06   2.46349e+06    1.4395e+06   1.14707e+06
         2.29   3.46648e+06   2.97643e+06   2.46182e+06   1.43236e+06   1.14591e+06
          2.3   3.46461e+06   2.97102e+06   2.45758e+06   1.43048e+06   1.14451e+06
         2.31   3.46497e+06    2.9736e+06    2.4555e+06   1.43016e+06   1.14445e+06
         2.32   3.46321e+06   2.97076e+06   2.45494e+06   1.43192e+06   1.14588e+06
         2.33   3.45854e+06   2.96806e+06   2.45306e+06   1.43697e+06   1.15399e+06
         2.34   3.45896e+06   2.96544e+06   2.45141e+06   1.43654e+06   1.15519e+06
         2.35    3.4572e+06   2.96437e+06   2.44977e+06   1.43337e+06   1.15206e+06
         2.36   3.45246e+06   2.96199e+06    2.4481e+06   1.42856e+06   1.14113e+06
         2.37    3.4529e+06   2.95952e+06   2.44391e+06   1.42301e+06   1.13703e+06
         2.38   3.45111e+06   2.95709e+06   2.44318e+06   1.42011e+06   1.13622e+06
         2.39   3.45153e+06   2.95471e+06   2.44161e+06    1.4207e+06   1.13644e+06
          2.4   3.44977e+06   2.95239e+06   2.44008e+06   1.42525e+06   1.13814e+06
         2.41   3.44521e+06   2.95014e+06   2.43856e+06   1.42623e+06   1.14597e+06
         2.42   3.44576e+06   2.94795e+06   2.43431e+06   1.42673e+06   1.14616e+06
         2.43    3.4441e+06   2.94582e+06   2.43383e+06   1.42472e+06   1.14319e+06
         2.44   3.43973e+06   2.94372e+06   2.43228e+06   1.42107e+06   1.13831e+06
         2.45   3.44048e+06   2.94166e+06   2.43078e+06   1.41948e+06   1.13016e+06
         2.46   3.43897e+06   2.93966e+06   2.42705e+06   1.41709e+06   1.12736e+06
         2.47   3.43481e+06   2.93771e+06   2.42618e+06   1.41308e+06   1.12605e+06
         2.48    3.4357e+06   2.93583e+06   2.42475e+06   1.40713e+06   1.12658e+06
         2.49   3.43433e+06   2.93231e+06   2.42327e+06   1.40621e+06   1.12599e+06
          2.5   3.43035e+06   2.93042e+06   2.42168e+06   1.40637e+06   1.12625e+06
         2.51   3.43139e+06   2.92856e+06   2.41781e+06   1.41127e+06   1.13019e+06
         2.52   3.43018e+06   2.92674e+06   2.41585e+06   1.41137e+06    1.1252e+06
         2.53   3.42639e+06   2.92496e+06   2.41404e+06   1.41092e+06    1.1227e+06
         2.54   3.42766e+06   2.92325e+06   2.41231e+06   1.41033e+06   1.11957e+06
         2.55    3.4266e+06   2.91713e+06   2.41032e+06   1.40904e+06   1.11827e+06
         2.56   3.42296e+06   2.91488e+06   2.40982e+06   1.40825e+06    1.1172e+06
         2.57    3.4245e+06    2.9155e+06   2.40806e+06   1.40722e+06   1.11607e+06
         2.58   3.42362e+06   2.91386e+06   2.40658e+06   1.40587e+06   1.11463e+06
         2.59   3.42009e+06   2.91228e+06   2.40494e+06   1.40431e+06   1.11342e+06
          2.6   3.41685e+06   2.91057e+06   2.40339e+06   1.40371e+06   1.11265e+06
         2.61   3.41848e+06   2.90895e+06   2.40189e+06   1.40373e+06   1.11235e+06
         2.62   3.41779e+06   2.90744e+06   2.39789e+06   1.39454e+06   1.11081e+06
         2.63    3.4145e+06   2.90595e+06    2.3973e+06   1.38848e+06      1.11e+06
         2.64   3.41649e+06   2.90444e+06   2.39568e+06   1.39121e+06   1.11843e+06
         2.65   3.41322e+06   2.90111e+06   2.39409e+06   1.39665e+06   1.12445e+06
         2.66   3.41271e+06   2.89959e+06   2.39255e+06   1.39756e+06   1.11713e+06
         2.67   3.40987e+06   2.89802e+06   2.39103e+06   1.39638e+06   1.10703e+06
         2.68   3.41192e+06    2.8966e+06   2.38914e+06   1.39451e+06   1.10486e+06
         2.69    3.4092e+06     2.895e+06   2.38741e+06   1.39216e+06   1.10529e+06
          2.7   3.40939e+06   2.89155e+06   2.38554e+06   1.38106e+06   1.10818e+06
         2.71   3.40687e+06    2.8878e+06   2.38361e+06   1.38573e+06   1.11284e+06
         2.72   3.40441e+06   2.88807e+06   2.38068e+06   1.39042e+06   1.11647e+06
         2.73   3.40672e+06   2.88659e+06   2.37882e+06   1.38845e+06   1.11277e+06
         2.74   3.40693e+06   2.88502e+06   2.37724e+06   1.37757e+06   1.09902e+06
         2.75   3.40442e+06   2.88357e+06   2.37667e+06   1.37476e+06   1.10058e+06
         2.76   3.40217e+06   2.88224e+06   2.37505e+06   1.37399e+06   1.11199e+06
         2.77   3.40004e+06   2.87933e+06   2.37358e+06   1.38041e+06   1.11244e+06
         2.78   3.40245e+06   2.87791e+06   2.37218e+06   1.38199e+06   1.10835e+06
         2.79   3.40042e+06   2.87663e+06   2.37056e+06   1.38209e+06   1.09853e+06
          2.8   3.40122e+06   2.87509e+06   2.36867e+06    1.3816e+06   1.09388e+06
         2.81   3.39922e+06   2.87372e+06    2.3668e+06   1.37846e+06   1.09215e+06
         2.82   3.39723e+06   2.87226e+06   2.36525e+06   1.37048e+06   1.09288e+06
         2.83    3.3998e+06   2.86677e+06   2.36358e+06   1.36738e+06   1.09692e+06
         2.84   3.39762e+06   2.86742e+06   2.36206e+06   1.36536e+06    1.1052e+06
         2.85    3.3959e+06   2.86612e+06    2.3604e+06   1.36323e+06   1.10565e+06
         2.86   3.39696e+06   2.86477e+06   2.35733e+06   1.36484e+06   1.10487e+06
         2.87   3.39551e+06   2.86341e+06   2.35591e+06    1.3676e+06   1.10315e+06
         2.88   3.39441e+06   2.86218e+06   2.35612e+06    1.3691e+06   1.09625e+06
         2.89   3.39357e+06   2.85937e+06   2.35425e+06   1.36964e+06   1.08804e+06
          2.9   3.39277e+06   2.85815e+06   2.35241e+06   1.37031e+06   1.08567e+06
         2.91   3.39202e+06   2.85675e+06    2.3506e+06   1.36907e+06   1.08403e+06
         2.92   3.39564e+06   2.85561e+06   2.34884e+06   1.36079e+06   1.08245e+06
         2.93   3.39406e+06    2.8542e+06   2.34733e+06   1.35405e+06   1.08339e+06
         2.94   3.39221e+06   2.84872e+06   2.34448e+06   1.36221e+06   1.09255e+06
         2.95    3.3932e+06   2.84953e+06   2.34295e+06   1.36483e+06   1.09709e+06
         2.96   3.39178e+06   2.84816e+06   2.34246e+06   1.36362e+06   1.08497e+06
         2.97   3.39104e+06   2.84696e+06   2.34173e+06   1.35202e+06   1.07778e+06
         2.98   3.39088e+06   2.84572e+06   2.33999e+06   1.34935e+06   1.07977e+06
         2.99   3.39095e+06   2.84312e+06   2.33823e+06    1.3591e+06   1.09239e+06
            3   3.39143e+06    2.8418e+06   2.33508e+06   1.35956e+06   1.09166e+06
         3.01   3.39235e+06   2.84063e+06   2.33464e+06   1.34657e+06   1.07656e+06
         3.02   3.39306e+06   2.83926e+06   2.33318e+06   1.34991e+06   1.07393e+06
         3.03   3.39298e+06   2.83804e+06   2.33141e+06   1.35609e+06   1.08854e+06
         3.04   3.39185e+06   2.83661e+06   2.32889e+06   1.35344e+06    1.0869e+06
         3.05   3.39044e+06    2.8313e+06   2.32735e+06   1.34202e+06   1.07191e+06
         3.06   3.38907e+06   2.83182e+06   2.32595e+06   1.34358e+06    1.0736e+06
         3.07    3.3883e+06   2.83042e+06   2.32632e+06   1.35163e+06   1.08659e+06
         3.08   3.38789e+06   2.82902e+06   2.32402e+06   1.35061e+06    1.0817e+06
         3.09    3.3876e+06   2.82773e+06   2.32246e+06   1.33871e+06   1.06835e+06
          3.1   3.39091e+06   2.82633e+06   2.32136e+06   1.34299e+06   1.06872e+06
         3.11   3.38868e+06   2.82498e+06   2.31965e+06   1.34727e+06   1.08248e+06
         3.12   3.38873e+06    2.8222e+06   2.31848e+06   1.34762e+06   1.08063e+06
         3.13   3.38606e+06   2.82068e+06   2.31512e+06   1.33839e+06   1.06543e+06
         3.14   3.38396e+06   2.81919e+06   2.31497e+06    1.3342e+06   1.06445e+06
         3.15   3.38659e+06   2.81788e+06   2.31218e+06   1.34251e+06   1.07699e+06
         3.16   3.38438e+06   2.81638e+06     2.312e+06   1.34381e+06    1.0791e+06
         3.17   3.38487e+06   2.81487e+06   2.31024e+06    1.3382e+06   1.06389e+06
         3.18   3.38303e+06   2.81341e+06   2.30775e+06   1.32892e+06   1.06073e+06
         3.19    3.3816e+06   2.81218e+06   2.30763e+06   1.34056e+06   1.07027e+06
          3.2   3.38045e+06   2.81074e+06   2.30663e+06   1.32652e+06   1.07646e+06
         3.21   3.38361e+06   2.80928e+06   2.30337e+06    1.3374e+06   1.05921e+06
         3.22   3.38166e+06   2.80417e+06   2.30336e+06   1.33304e+06   1.06885e+06
         3.23   3.38135e+06   2.80246e+06   2.30213e+06   1.33416e+06    1.0652e+06
         3.24   3.37733e+06   2.80143e+06   2.29905e+06   1.33152e+06   1.05875e+06
         3.25   3.37806e+06   2.80151e+06   2.29927e+06   1.33255e+06   1.07187e+06
         3.26   3.37542e+06   2.79999e+06   2.29795e+06   1.33268e+06    1.0546e+06
         3.27   3.37481e+06   2.79852e+06   2.29553e+06   1.32011e+06    1.0705e+06
         3.28   3.37108e+06   2.79705e+06   2.29446e+06   1.33173e+06   1.05284e+06
         3.29   3.36941e+06   2.79553e+06   2.29343e+06   1.32585e+06   1.06908e+06
          3.3   3.36473e+06   2.79418e+06   2.29211e+06   1.31704e+06   1.05298e+06
         3.31   3.36501e+06   2.79269e+06   2.28896e+06   1.32876e+06   1.05619e+06
         3.32   3.35477e+06   2.79125e+06   2.28748e+06   1.32176e+06   1.06718e+06
         3.33   3.35673e+06   2.78843e+06    2.2861e+06   1.32461e+06   1.04985e+06
         3.34   3.35599e+06   2.78692e+06   2.28605e+06   1.32327e+06   1.05296e+06
         3.35   3.35225e+06   2.78545e+06   2.28426e+06   1.32452e+06   1.06413e+06
         3.36   3.34584e+06     2.784e+06    2.2831e+06   1.31064e+06   1.04695e+06
         3.37   3.34404e+06   2.78253e+06   2.28134e+06   1.32374e+06   1.06278e+06
         3.38   3.34175e+06   2.78094e+06   2.27892e+06   1.32043e+06   1.04797e+06
         3.39   3.33891e+06   2.77936e+06   2.27923e+06   1.30778e+06     1.052e+06
          3.4   3.33305e+06   2.77775e+06   2.27748e+06   1.32067e+06   1.06047e+06
         3.41    3.3291e+06   2.77619e+06   2.27631e+06   1.31927e+06   1.04328e+06
         3.42    3.3246e+06   2.77587e+06    2.2734e+06   1.30943e+06   1.05499e+06
         3.43   3.32205e+06   2.77425e+06   2.27378e+06   1.30394e+06   1.05818e+06
         3.44   3.31679e+06   2.77265e+06   2.27201e+06    1.3163e+06   1.04313e+06
         3.45   3.31091e+06   2.77115e+06    2.2709e+06   1.31697e+06   1.04042e+06
         3.46   3.30454e+06   2.76958e+06   2.26812e+06     1.314e+06   1.05484e+06
         3.47   3.29764e+06   2.76718e+06   2.26825e+06   1.30588e+06   1.04429e+06
         3.48   3.28705e+06   2.76462e+06   2.26638e+06   1.30011e+06   1.05207e+06
         3.49   3.28985e+06   2.76315e+06   2.26532e+06   1.31239e+06   1.03793e+06
          3.5    3.2818e+06   2.76207e+06   2.26359e+06   1.31169e+06   1.03751e+06
         3.51   3.27302e+06   2.76053e+06   2.26199e+06   1.29649e+06   1.03804e+06
         3.52   3.27123e+06   2.75899e+06    2.2611e+06   1.31062e+06   1.03706e+06
         3.53     3.262e+06   2.75746e+06   2.26013e+06   1.29814e+06   1.03568e+06