# Probe 0 (1 0 0)
# Probe 1 (140 0 0)
# Probe 2 (200 0 0)
# Probe 3 (250 0 0)
# Probe 4 (255 0 0)
#       Probe             0             1             2             3             4
#        Time
            0        274.13        274.13        274.13        274.13        274.13
         0.01       274.243       274.243       274.243       274.243       261.495
         0.02       274.243       274.243       274.243       274.243        246.95
         0.03       274.243       274.243       274.243       274.167       242.129
         0.04       274.243       274.243       274.243       273.446       239.978
