# Probe 0 (1 0 0)
# Probe 1 (140 0 0)
# Probe 2 (200 0 0)
# Probe 3 (250 0 0)
# Probe 4 (255 0 0)
#       Probe             0             1             2             3             4
#        Time
            0        274.69        274.69        274.69        274.69        274.69
         0.01       274.755       274.755       274.755       274.755       263.456
         0.02       274.755       274.755       274.755       274.747        250.71
         0.03       274.755       274.755       274.755       274.234       245.645
         0.04       274.755       274.755       274.755       273.527       243.219
         0.05       274.755       274.755       274.755       272.261       242.077
         0.06       274.755       274.755       274.755       269.623        241.63
         0.07       274.755       274.755       274.755        265.93       241.559
         0.08       274.755       274.755       274.755       262.786       241.717
         0.09       274.755       274.755       274.755       260.408       241.971
          0.1       274.755       274.755       274.755       258.613       242.237
         0.11       274.755       274.755       274.755       257.228       242.506
         0.12       274.755       274.755       274.755       256.142       242.736
         0.13       274.755       274.755       274.755       255.278       242.918
         0.14       274.755       274.755       274.755       254.582        243.04
         0.15       274.755       274.755       274.755       254.024        243.11
         0.16       274.755       274.755       274.755       253.579       243.159
         0.17       274.755       274.755       274.755       253.236       243.201
         0.18       274.755       274.755       274.755       252.972       243.225
         0.19       274.755       274.755       274.755       252.769       243.227
          0.2       274.755       274.755       274.755        252.61       243.209
         0.21       274.755       274.755       274.755       252.482       243.179
         0.22       274.755       274.755       274.755       252.375       243.156
         0.23       274.755       274.755       274.755       252.288       243.143
         0.24       274.755       274.755       274.755        252.21        243.12
         0.25       274.755       274.755       274.754       252.137       243.083
         0.26       274.755       274.755       274.749       252.064       243.039
         0.27       274.755       274.755       274.741       251.992       242.989
         0.28       274.755       274.755        274.73       251.918        242.95
         0.29       274.755       274.755       274.718       251.841       242.929
          0.3       274.755       274.755       274.701       251.764       242.902
         0.31       274.755       274.755       274.681       251.685       242.865
         0.32       274.755       274.755       274.656       251.607       242.822
         0.33       274.755       274.755       274.625        251.53       242.777
         0.34       274.755       274.755       274.587       251.454       242.727
         0.35       274.755       274.755       274.542       251.379       242.702
         0.36       274.755       274.755        274.49       251.304       242.681
         0.37       274.755       274.755        274.43        251.23       242.651
         0.38       274.755       274.755       274.363       251.157       242.613
         0.39       274.755       274.755        274.29       251.087        242.57
          0.4       274.755       274.755       274.212       251.018       242.522
         0.41       274.755       274.755       274.133       250.952       242.478
         0.42       274.755       274.755       274.053       250.887       242.456
         0.43       274.755       274.755       273.977       250.823       242.429
         0.44       274.755       274.755       273.905       250.761       242.392
         0.45       274.755       274.755       273.888       250.702       242.349
         0.46       274.755       274.755       273.784       250.644       242.303
         0.47       274.755       274.755        273.72       250.589       242.253
         0.48       274.755       274.755       273.702       250.534       242.218
         0.49       274.755       274.755       273.545       250.482       242.198
          0.5       274.755       274.755       273.484       250.431        242.17
         0.51       274.755       274.755       273.406       250.382       242.134
         0.52       274.755       274.755       273.379       250.334       242.093
         0.53       274.755       274.755       273.252       250.286       242.051
         0.54       274.755       274.754       273.213       250.241       242.005
         0.55       274.755       274.753       273.127       250.196       241.976
         0.56       274.755       274.752       273.131       250.153        241.96
         0.57       274.755        274.75       273.079       250.111       241.936
         0.58       274.755       274.749       273.029        250.07       241.905
         0.59       274.755       274.747       273.064        250.03       241.869
          0.6       274.755       274.744       273.039       249.991        241.83
         0.61       274.755       274.741       273.026       249.955       241.788
         0.62       274.755       274.738       273.008        249.92        241.76
         0.63       274.755       274.734       272.945       249.885       241.746
         0.64       274.755       274.729       272.514       249.852       241.724
         0.65       274.755       274.724       272.773       249.819       241.694
         0.66       274.755       274.718       272.551       249.788       241.659
         0.67       274.755       274.711       272.229       249.758       241.622
         0.68       274.755       274.703       272.099       249.726       241.579
         0.69       274.755       274.693       272.329       249.682       241.561
          0.7       274.755       274.683       272.195       249.613       241.545
         0.71       274.755       274.671       271.574       249.519       241.516
         0.72       274.755       274.657       271.851       249.415       241.467
         0.73       274.755       274.641       271.213       249.313       241.391
         0.74       274.755       274.624       270.932       249.211       241.286
         0.75       274.755       274.605       271.156       249.108       241.175
         0.76       274.755       274.583       270.613       249.001       241.078
         0.77       274.755        274.56       270.243       248.885       240.966
         0.78       274.755       274.534       270.214       249.668       240.839
         0.79       274.755       274.506       270.124       249.217       240.696
          0.8       274.755       274.475        269.59       248.949       240.536
         0.81       274.755       274.442       269.806       248.976       240.395
         0.82       274.755       274.407       269.195       248.997       240.239
         0.83       274.755        274.37       269.417        248.93       240.058
         0.84       274.755       274.332       268.818       249.303       239.893
         0.85       274.755       274.292       268.987       248.288       239.794
         0.86       274.755        274.25       268.475       248.199       239.734
         0.87       274.755       274.208       268.311       248.143       239.687
         0.88       274.755       274.166       268.455       248.505       239.566
         0.89       274.755       274.124        268.27       248.567       239.504
          0.9       274.755       274.082       267.829       248.986       239.405
         0.91       274.755       274.042       267.955       248.019       239.333
         0.92       274.755       274.003       267.893       247.818       239.312
         0.93       274.755       273.966       267.407       247.874        239.17
         0.94       274.755       273.931       267.272       247.782       239.114
         0.95       274.755       273.899       267.415       247.699       239.035
         0.96       274.755        273.86       267.344       247.852       239.023
         0.97       274.755        273.88       266.888       247.795       238.911
         0.98       274.755       273.822       266.821        247.53       238.827
         0.99       274.755       273.779        266.97       247.324       238.759
            1       274.755       273.816       266.677       248.214       238.726
         1.01       274.755       273.715       266.457       247.239        238.63
         1.02       274.755       273.657       266.624       248.246       238.682
         1.03       274.755       273.666       266.356       247.177       238.622
         1.04       274.755       273.589       266.201       247.041       238.519
         1.05       274.755       273.634       266.341       248.127       238.453
         1.06       274.755        273.51       265.956       247.669        239.29
         1.07       274.755       273.445       266.134       246.883        238.35
         1.08       274.755       273.451        265.75       248.019       238.273
         1.09       274.755       273.384       265.923       246.804       238.302
          1.1       274.755       273.437       265.807       246.672       238.162
         1.11       274.755       273.318       265.533       247.576       238.253
         1.12       274.755       273.276       265.696       247.813       238.095
         1.13       274.755       273.347        265.57       247.785       237.962
         1.14       274.755       273.232       265.497       247.106       237.986
         1.15       274.755       273.201       265.401       247.499       238.859
         1.16       274.755       273.169       265.341       246.341       237.856
         1.17       274.755        273.13       265.257       247.453       237.821
         1.18       274.755       273.165       265.207       247.259       237.902
         1.19       274.755       273.138       265.126        246.29       237.724
          1.2       274.755       273.114       265.091       246.164       237.711
         1.21       274.755       273.098        264.77       247.298       239.217
         1.22       274.755       273.081       264.889       246.407       237.513
         1.23       274.755        273.07       264.712       245.996       237.561
         1.24       274.754        273.06       264.797       246.712       237.714
         1.25       274.754       273.051        264.78       246.615       237.586
         1.26       274.754       273.038       264.526       245.842        237.29
         1.27       274.754       273.109       264.608       247.043       237.835
         1.28       274.753       273.075        264.59       245.743       237.471
         1.29       274.753       273.075       264.293       246.437        237.17
          1.3       274.753       273.066       264.416       245.635       238.682
         1.31       274.752       273.058       264.405       245.633        237.08
         1.32       274.752       273.051       264.338       245.726         238.3
         1.33       274.751       273.046        264.25       246.757       237.007
         1.34        274.75       273.042       264.248       245.432       236.979
         1.35        274.75       273.038       264.079       245.584       236.926
         1.36       274.749       273.034       263.935       246.575       237.876
         1.37       274.748       273.028       264.068       245.275       236.803
         1.38       274.747       273.023        263.98       245.447       236.789
         1.39       274.746       272.995       263.984       246.263       238.023
          1.4       274.744        272.65       263.733       245.177       236.858
         1.41       274.743       273.043       263.883       246.447       236.611
         1.42       274.741       272.957       263.643       244.988       238.387
         1.43        274.74        272.95       263.752        246.41       236.441
         1.44       274.738       272.842       263.692       244.929       237.206
         1.45       274.736       272.854       263.513       246.227       236.354
         1.46       274.734        272.79       263.623       244.863       237.049
         1.47       274.731       272.763       263.564       245.101        236.25
         1.48       274.728        272.72       263.387       245.719       236.533
         1.49       274.725        272.66       263.422       245.943       237.325
          1.5       274.722       272.389       263.432       244.845       236.613
         1.51       274.719       272.568       263.388       245.353       236.401
         1.52       274.715       272.455       263.376       245.588       236.082
         1.53       274.711       272.452        263.32       244.669       236.202
         1.54       274.706       271.969       263.282       245.668       236.388
         1.55       274.701        272.32       263.236       244.645       236.814
         1.56       274.696       271.809       263.168       245.525       238.308
         1.57        274.69        272.11       263.093       245.006        237.79
         1.58       274.684       272.085       262.955       244.657       237.994
         1.59       274.677       271.544       262.915       245.505       237.121
          1.6        274.67       271.798       262.877       244.364       235.668
         1.61       274.662       271.764       262.941       245.407       236.881
         1.62       274.654         271.7       262.995       244.356       235.625
         1.63       274.645       271.153       262.953       245.119       236.073
         1.64       274.635       271.079       262.916       244.607       235.771
         1.65       274.624        271.29       262.883       244.361       236.042
         1.66       274.613        271.22       262.753       245.251       237.229
         1.67       274.601       271.148       262.807        244.07       236.205
         1.68       274.588       271.081       262.679       244.917        237.63
         1.69       274.574       270.994       262.546        244.42       235.865
          1.7       274.559       270.783       262.519        244.14       235.762
         1.71       274.543       270.697       262.614       245.054       235.349
         1.72       274.526       270.447       262.587       243.893       235.401
         1.73       274.508       270.177       262.562       244.902       236.684
         1.74       274.489       270.126       262.538        244.22       235.081
         1.75       274.468       270.315       262.513       243.765       235.561
         1.76       274.446       270.258       262.488       244.909       235.123
         1.77       274.424       270.206       262.454       244.009       235.189
         1.78       274.399       270.159       262.421       243.626       236.203
         1.79       274.374       269.977         262.2       244.758       235.604
          1.8       274.347       269.608       262.167       243.813       236.866
         1.81       274.319       269.826       262.135       243.865       236.528
         1.82        274.29       269.797       262.108        244.68       234.975
         1.83       274.259       269.663       262.086       243.499       234.912
         1.84       274.227       269.406       262.174       244.211       235.799
         1.85       274.194       269.551       262.146       244.555       234.736
         1.86       274.159       269.537       262.115       243.457         235.4
         1.87       274.123       269.105       262.084       244.015       235.579
         1.88       274.086       269.345       262.058       244.419       234.672
         1.89       274.048       269.342       262.029       243.166       234.959
          1.9       274.009       269.013       262.004       244.064       235.447
         1.91       273.969       269.178       261.981       244.122       234.632
         1.92       273.928        268.77       261.955       243.063       235.766
         1.93       273.887       269.039        261.93       243.766       234.931
         1.94       273.991       268.956       261.812       244.282       234.402
         1.95       273.952        268.92       261.689       243.306       235.858
         1.96       273.911       268.699       261.673       243.072       235.371
         1.97       273.871       268.823       261.758        244.11       234.324
         1.98        273.83       268.449       261.734       243.572       234.809
         1.99       273.789       268.733       261.714       242.805       236.311
            2       273.749       268.615       261.691       243.482        234.42
         2.01       273.854       268.646       261.668       244.005       234.142
         2.02       273.815       268.535       261.645       243.061       235.925
         2.03       273.775       268.476       261.622        242.68       235.359
         2.04       273.736       268.471       261.411       243.807       234.152
         2.05       273.696       268.375       261.398       243.872        234.12
         2.06       273.656       268.427        261.49        242.83       236.053
         2.07        273.76       268.333       261.471       242.663       234.421
         2.08       273.719       268.248        261.45       243.706       233.814
         2.09       273.675       268.209       261.429       243.748       234.944
          2.1       273.629       268.227       261.406       242.678       235.985
         2.11       273.579        268.15       261.294       242.334       234.055
         2.12       273.673       267.929       261.188       243.414       233.639
         2.13       273.624       268.048        261.28        243.64       234.443
         2.14       273.572       268.076       261.257       243.163       235.704
         2.15       273.517       268.005       261.235       242.222       234.571
         2.16       273.459       267.939       261.214         242.8       233.698
         2.17       273.544       267.632       261.197       243.436       233.632
         2.18       273.484       267.948       261.178       243.467       235.533
         2.19       273.419       267.886       261.067       242.713       235.229
          2.2       273.349       267.825       260.957       242.075       233.834
         2.21       273.424       267.767       260.938       241.908       233.411
         2.22       273.352       267.534       260.907       241.903       233.436
         2.23       273.275       267.695       260.993       241.864       235.189
         2.24       273.339       267.637       260.969       242.514       235.307
         2.25       273.258       267.686       260.947       243.148        235.27
         2.26       273.173       267.636       260.923       243.241       235.568
         2.27       273.228       267.589       260.901       243.213       235.526
         2.28       273.139       267.544       260.881       242.943       233.724
         2.29       273.045       267.502       260.864       242.037       233.484
          2.3       273.093       267.238       260.668       241.761       233.101
         2.31       273.057       267.454        260.66       241.634       232.979
         2.32       273.107       267.411       260.747       241.779       233.045
         2.33       273.015       267.374       260.722       242.591       234.546
         2.34       272.978       267.338       260.705       242.961        235.21
         2.35       273.028       267.396        260.69       242.981       235.395
         2.36       272.935       267.369       260.673       242.677       233.998
         2.37       272.898       267.337       260.478       241.986       233.191
         2.38       272.947       267.305       260.582       241.459       232.826
         2.39        272.91       267.274       260.567       241.367       232.694
          2.4       272.959       267.244       260.553       241.959       232.842
         2.41       272.869       267.217        260.54       242.288       234.444
         2.42       272.834        267.19       260.355       242.586       235.125
         2.43       272.885       267.165       260.454       242.742       235.216
         2.44       272.799       267.141       260.439       242.713       234.628
         2.45       272.769       267.117       260.425        242.67       233.394
         2.46       272.822       267.095       260.233       242.581       232.664
         2.47        272.74       267.074        260.34       242.148       232.487
         2.48       272.713       267.055       260.331       241.324       232.455
         2.49       272.769       266.934       260.317       241.388       232.366
          2.5        272.69       266.914       260.304       241.607       232.397
         2.51       272.666       266.895       260.108       242.465        233.06
         2.52       272.725       266.877       260.096       242.513        232.36
         2.53        272.65       266.859       260.067       242.499        232.25
         2.54       272.631       266.844       260.033       242.482       232.146
         2.55       272.693       266.569        260.02        242.45       232.215
         2.56       272.621       266.613       260.112       242.442       232.264
         2.57       272.607       266.766       260.093       242.404       232.217
         2.58       272.672       266.751       260.074       242.361       232.219
         2.59       272.602       266.737       260.054       242.328        232.22
          2.6       272.538       266.724       260.041       242.343       232.303
         2.61       272.526       266.705       260.018       242.176       232.297
         2.62       272.595       266.692       259.835       240.878       232.102
         2.63       272.529        266.68       259.936       240.598       232.413
         2.64       272.526       266.668       259.913       241.506       234.213
         2.65       272.461       266.557       259.892       242.185       234.566
         2.66       272.532       266.541       259.873        242.16       233.008
         2.67       272.476       266.532       259.855       241.944       231.713
         2.68       272.478       266.516        259.83       241.728       231.901
         2.69       272.424       266.504       259.807       241.466       232.454
          2.7       272.509       266.365       259.775       240.289       233.263
         2.71       272.459        266.32       259.744       241.712       234.237
         2.72        272.41       266.439       259.621       242.041       234.522
         2.73       272.408       266.423       259.576       241.488       233.251
         2.74       272.493       266.413       259.571       240.169       231.527
         2.75       272.443       266.396       259.639       240.305       232.545
         2.76       272.398       266.387       259.621       240.589        234.51
         2.77       272.356       266.286       259.602       241.744       234.037
         2.78       272.364       266.271       259.589       241.837       233.139
         2.79       272.324       266.261       259.568       241.795       231.489
          2.8       272.421       266.251       259.537       241.688       231.338
         2.81       272.381       266.234       259.505       241.161       231.545
         2.82       272.341       266.224       259.481        240.16       232.085
         2.83       272.349       265.968       259.457       239.968        233.12
         2.84       272.305       266.182        259.44       239.955       234.341
         2.85       272.271       266.178       259.412       240.099        234.04
         2.86       272.373       266.163        259.27       240.701       233.949
         2.87       272.344       266.157       259.228       241.266       233.564
         2.88       272.322       266.146       259.364       241.513       232.352
         2.89       272.305       266.045       259.332       241.551       231.115
          2.9       272.289       266.032       259.302       241.508       231.053
         2.91       272.274       266.023       259.272       241.206       231.071
         2.92       272.301       266.012       259.243       240.065       231.228
         2.93        272.27       266.003       259.248       239.847       231.915
         2.94       272.233       265.755       259.098        241.36       233.755
         2.95       272.333       265.965        259.05       241.412       233.762
         2.96       272.305       265.957       259.104       241.014       231.313
         2.97        272.29       265.946       259.157        239.52       230.912
         2.98       272.287       265.941       259.128       239.959       231.939
         2.99       272.288       265.838       259.098       241.347       234.049
            3       272.298        265.83       258.934       241.065       233.266
         3.01       272.316       265.818       258.989       239.371       230.706
         3.02        272.33       265.809       259.018       240.656       231.167
         3.03       272.329       265.796       258.985        241.25       233.992
         3.04       272.306       265.786       258.873       240.527       232.909
         3.05       272.278       265.535       258.822       239.349        230.55
         3.06       272.251       265.742       258.792       240.193       231.808
         3.07       272.235       265.732       258.931       241.148        233.86
         3.08       272.227        265.72       258.881        240.69       232.312
         3.09       272.221       265.705       258.855       239.186       230.451
          3.1       272.243       265.696       258.851       240.669       231.294
         3.11       272.198        265.68       258.827       241.037        233.82
         3.12        272.28       265.582       258.815       240.846       232.756
         3.13       272.226       265.566       258.657       239.419       230.402
         3.14       272.184       265.549       258.756       239.799       230.894
         3.15       272.193       265.532       258.631       240.941       233.643
         3.16       272.148       265.519       258.713       240.814       233.085
         3.17       272.239       265.503       258.677       239.854        230.31
         3.18       272.202       265.486       258.549       239.448       230.626
         3.19       272.173       265.472        258.65       240.849       232.926
          3.2        272.15       265.461       258.641       238.795       233.326
         3.21       272.169       265.447       258.509       240.855       230.083
         3.22        272.13       265.202       258.623       239.744        232.96
         3.23       272.204       265.217       258.577       240.786       231.113
         3.24       272.123       265.267       258.398       239.711       231.177
         3.25       272.092        265.37       258.567        240.74       232.991
         3.26       272.118       265.352       258.518       240.192       230.355
         3.27       272.065       265.336       258.459       239.209       233.035
         3.28        272.07       265.321       258.487       240.659       230.197
         3.29       271.997       265.303       258.483       239.484       233.346
          3.3       271.982       265.284       258.429       239.108       229.862
         3.31       272.028       265.271       258.308       240.606       231.687
         3.32       271.557       265.252       258.231       239.221       233.036
         3.33       271.901        265.15       258.254       240.546       229.776
         3.34       271.926       265.134       258.323       239.694       231.431
         3.35       271.811       265.118       258.298       240.586       232.688
         3.36        271.76       265.101       258.283       238.301       230.144
         3.37       271.763       265.084       258.253       240.386       232.832
         3.38       271.757       265.063       258.116       240.475       230.659
         3.39       271.739       265.044       258.234       238.147       230.668
          3.4       271.582       265.025       258.204        240.14        233.45
         3.41       271.542       265.006       258.228       240.467       229.739
         3.42       271.491       265.024       258.079       239.289        231.81
         3.43       271.548       265.003       258.158       237.972       233.401
         3.44       271.491       264.983       258.121       240.047       230.343
         3.45        271.41       264.969       258.148       240.315       229.202
         3.46       271.321       264.949        258.02       240.362       232.983
         3.47       271.223       264.923       258.075       239.349       231.109
         3.48       270.821        264.85       258.036       237.834       232.143
         3.49       271.187       264.836       258.063       239.939       230.072
          3.5       271.071       264.874       258.027       240.272       229.892
         3.51       270.933       264.859       257.917       238.169       229.961
         3.52       270.978        264.84       257.959       240.043       230.194
         3.53       270.836       264.822       257.991         238.9       229.753