# Probe 0 (1 0 0)
# Probe 1 (140 0 0)
# Probe 2 (200 0 0)
# Probe 3 (250 0 0)
# Probe 4 (255 0 0)
#       Probe             0             1             2             3             4
#        Time
            0        274.13        274.13        274.13        274.13        274.13
         0.01       272.558       272.558       272.558       272.558        271.47
         0.02       272.558       272.558       272.558       272.558       270.064
         0.03       272.558       272.558       272.558       272.554       269.426
         0.04       272.558       272.558       272.558       272.493       269.001
