# Probe 0 (1 0 0)
# Probe 1 (140 0 0)
# Probe 2 (200 0 0)
# Probe 3 (250 0 0)
# Probe 4 (255 0 0)
#       Probe             0             1             2             3             4
#        Time
            0        274.69        274.69        274.69        274.69        274.69
         0.01       273.118       273.118       273.118       273.118       271.965
         0.02       273.118       273.118       273.118       273.118       270.329
         0.03       273.118       273.118       273.118       273.091       269.365
         0.04       273.118       273.118       273.118       273.036       268.685
         0.05       273.118       273.118       273.118       272.816       268.064
         0.06       273.118       273.118       273.118       272.203       267.456
         0.07       273.118       273.118       273.118       271.456       266.973
         0.08       273.118       273.118       273.118       270.736       266.494
         0.09       273.118       273.118       273.118       270.076       266.041
          0.1       273.118       273.118       273.118       269.468       265.634
         0.11       273.118       273.118       273.118       268.901       265.212
         0.12       273.118       273.118       273.118       268.367       264.845
         0.13       273.118       273.118       273.118        267.86       264.453
         0.14       273.118       273.118       273.118       267.378       264.069
         0.15       273.118       273.118       273.118       266.921       263.726
         0.16       273.118       273.118       273.118       266.492       263.356
         0.17       273.118       273.118       273.118       266.088       263.033
         0.18       273.118       273.118       273.118       265.697       262.697
         0.19       273.118       273.118       273.118       265.309       262.361
          0.2       273.118       273.118       273.118       264.937       262.052
         0.21       273.118       273.118       273.118       264.594       261.732
         0.22       273.118       273.118       273.118       264.265       261.429
         0.23       273.118       273.118       273.118        263.93       261.142
         0.24       273.118       273.118       273.118       263.597       260.846
         0.25       273.118       273.118       273.118       263.279       260.565
         0.26       273.118       273.118       273.118       262.975       260.287
         0.27       273.118       273.118       273.117       262.675       260.008
         0.28       273.118       273.118       273.117       262.381       259.745
         0.29       273.118       273.118       273.116       262.094       259.484
          0.3       273.118       273.118       273.115       261.809       259.228
         0.31       273.118       273.118       273.114       261.528       258.978
         0.32       273.118       273.118       273.113       261.255       258.723
         0.33       273.118       273.118       273.111       260.985       258.473
         0.34       273.118       273.118       273.109       260.717       258.222
         0.35       273.118       273.118       273.107       260.458       257.974
         0.36       273.118       273.118       273.104       260.205       257.733
         0.37       273.118       273.118       273.101        259.95       257.492
         0.38       273.118       273.118       273.098       259.698       257.252
         0.39       273.118       273.118       273.094       259.455       257.014
          0.4       273.118       273.118        273.09       259.218       256.774
         0.41       273.118       273.118       273.086       258.977       256.535
         0.42       273.118       273.118       273.082       258.736       256.298
         0.43       273.118       273.118       273.078       258.501       256.063
         0.44       273.118       273.118       273.074       258.271       255.829
         0.45       273.118       273.118       273.067       258.042       255.595
         0.46       273.118       273.118       273.062       257.812       255.359
         0.47       273.118       273.118       273.052       257.584       255.123
         0.48       273.118       273.118       273.045       257.357       254.891
         0.49       273.118       273.118       273.037       257.128        254.66
          0.5       273.118       273.118       273.028       256.897       254.423
         0.51       273.118       273.118       273.018       256.665       254.185
         0.52       273.118       273.118        273.01       256.436       253.947
         0.53       273.118       273.118       273.004       256.207       253.709
         0.54       273.118       273.118       272.996       255.974       253.468
         0.55       273.118       273.118       272.992       255.741       253.225
         0.56       273.118       273.118       272.986       255.508        252.98
         0.57       273.118       273.118       272.983       255.279       252.731
         0.58       273.118       273.118       272.981       255.047       252.475
         0.59       273.118       273.118       272.977       254.812       252.213
          0.6       273.118       273.117       272.975       254.575       251.947
         0.61       273.118       273.117       272.975       254.336       251.678
         0.62       273.118       273.117        272.93       254.095       251.403
         0.63       273.118       273.117       272.879       253.851       251.122
         0.64       273.118       273.117       272.802       253.604       250.836
         0.65       273.118       273.116       272.726       253.352       250.548
         0.66       273.118       273.116       272.624       253.094       250.253
         0.67       273.118       273.116       272.521       252.832        249.95
         0.68       273.118       273.115       272.389       252.567       249.637
         0.69       273.118       273.115       272.241       252.297       249.317
          0.7       273.118       273.114       272.086        252.02       248.988
         0.71       273.118       273.114       271.889       251.734       248.649
         0.72       273.118       273.113       271.685       251.441       248.298
         0.73       273.118       273.112       271.483       251.142       247.933
         0.74       273.118       273.111       271.237       250.838        247.55
         0.75       273.118        273.11       271.014       250.526       247.149
         0.76       273.118       273.109       270.802         250.2       246.739
         0.77       273.118       273.108       270.557       249.869       246.307
         0.78       273.118       273.107       270.316       249.763       245.851
         0.79       273.118       273.105       270.126       249.702       245.368
          0.8       273.118       273.104       269.892        249.63       244.852
         0.81       273.118       273.102       269.682       249.576       244.334
         0.82       273.118         273.1       269.488       249.513       243.774
         0.83       273.118       273.098       269.282       249.455       243.194
         0.84       273.118       273.096       269.099       249.377       242.709
         0.85       273.118       273.094        268.92       249.259       242.619
         0.86       273.118       273.092       268.726       249.233        242.62
         0.87       273.118        273.09        268.57       249.207       242.508
         0.88       273.118       273.088       268.409       249.191       242.381
         0.89       273.118       273.086       268.227       249.031       242.288
          0.9       273.118       273.083       268.082       249.034       242.267
         0.91       273.118       273.081       267.948       248.997       242.217
         0.92       273.118       273.079       267.784        248.89       242.089
         0.93       273.118       273.077        267.63       248.877       242.136
         0.94       273.118       273.076       267.507       248.754       242.056
         0.95       273.118       273.074       267.384       248.752       241.983
         0.96       273.118       273.072        267.24       248.699       241.823
         0.97       273.118       273.067       267.105       248.648       241.839
         0.98       273.118       273.064       267.001       248.583       241.784
         0.99       273.118       273.062       266.873       248.474       241.817
            1       273.118       273.057       266.746       248.484       241.643
         1.01       273.118       273.052       266.652       248.411       241.624
         1.02       273.118       273.049       266.542       248.356       241.614
         1.03       273.118       273.043        266.42        248.33       241.573
         1.04       273.118        273.04       266.341       248.234       241.426
         1.05       273.118       273.036       266.226       248.205       241.524
         1.06       273.118       273.029       266.138       248.202       241.475
         1.07       273.118       273.026       266.041       248.056       241.347
         1.08       273.118        273.02       265.935       248.075       241.347
         1.09       273.118       273.017       265.867       248.016       241.258
          1.1       273.118       273.013       265.765       247.912       241.239
         1.11       273.118       273.007       265.692       247.865       241.269
         1.12       273.118       273.005       265.606       247.874       241.154
         1.13       273.118       273.003       265.515       247.845       241.135
         1.14       273.118       272.997       265.458       247.789       241.033
         1.15       273.118       272.996       265.361       247.692       241.141
         1.16       273.118       272.994       265.305       247.646       241.035
         1.17       273.118       272.992       265.212       247.641        241.08
         1.18       273.118       272.988        265.16       247.547       240.908
         1.19       273.118       272.986       265.068       247.464       240.923
          1.2       273.118       272.985       265.016       247.463       240.816
         1.21       273.118       272.984       264.931       247.464       240.832
         1.22       273.118       272.983       264.876       247.324       240.642
         1.23       273.118       272.983       264.819       247.324       240.812
         1.24       273.118       272.982       264.737       247.326       240.708
         1.25       273.118       272.982       264.686       247.201       240.675
         1.26       273.118       272.981       264.634       247.197       240.601
         1.27       273.118       272.979       264.558       247.158       240.663
         1.28       273.118       272.977       264.515       247.114       240.556
         1.29       273.118       272.977       264.442       247.026       240.466
          1.3       273.118       272.977       264.391       246.996        240.47
         1.31       273.118       272.976       264.348       246.978        240.46
         1.32       273.118       272.976       264.271       246.956       240.372
         1.33       273.118       272.976       264.229       246.915       240.269
         1.34       273.118       272.975       264.186       246.798       240.336
         1.35       273.118       272.975        264.11        246.83       240.234
         1.36       273.118       272.975       264.068       246.762       240.274
         1.37       273.118       272.975       264.011       246.672       240.115
         1.38       273.118       272.975       263.969       246.714       240.173
         1.39       273.118       272.937       263.927       246.609       240.157
          1.4       273.117       272.914       263.865       246.609       240.029
         1.41       273.117       272.891       263.832       246.601       240.071
         1.42       273.117       272.848       263.773       246.476        240.01
         1.43       273.117       272.842       263.725       246.508       239.967
         1.44       273.117       272.795       263.684        246.43       239.997
         1.45       273.117       272.751       263.637       246.458       239.837
         1.46       273.117       272.743       263.586       246.296       239.933
         1.47       273.117       272.698       263.545       246.275       239.775
         1.48       273.117       272.649       263.502       246.254       239.827
         1.49       273.117       272.599       263.446       246.265       239.693
          1.5       273.116       272.544       263.418       246.205       239.638
         1.51       273.116       272.454       263.375       246.137       239.644
         1.52       273.116       272.398       263.326       246.162        239.57
         1.53       273.116       272.342       263.286       246.073       239.574
         1.54       273.116       272.251       263.246       246.063       239.567
         1.55       273.115       272.184       263.203       246.011       239.598
         1.56       273.115       272.092       263.161       245.965       239.538
         1.57       273.115       272.024       263.115       245.966       239.424
         1.58       273.114       271.922       263.079       245.866       239.422
         1.59       273.114        271.82        263.04       245.895        239.38
          1.6       273.114       271.754           263       245.809       239.279
         1.61       273.113       271.645        262.96         245.8       239.254
         1.62       273.113       271.535       262.924       245.758       239.246
         1.63       273.112       271.427       262.885       245.702       239.234
         1.64       273.112       271.347       262.849       245.703       239.226
         1.65       273.111       271.256        262.81       245.607       239.135
         1.66       273.111       271.148       262.771       245.636       239.173
         1.67        273.11        271.04       262.735       245.566       239.116
         1.68       273.109       270.933       262.697       245.515       239.163
         1.69       273.109       270.832       262.665       245.526       238.974
          1.7       273.108       270.732       262.636       245.428       238.892
         1.71       273.107       270.632       262.606       245.459       238.938
         1.72       273.106       270.532       262.568       245.384       238.897
         1.73       273.105       270.446       262.529       245.352       238.952
         1.74       273.104       270.368       262.491       245.354       238.756
         1.75       273.103       270.284       262.453       245.252       238.777
         1.76       273.102       270.187       262.418       245.269       238.752
         1.77       273.101       270.095       262.383       245.245       238.787
         1.78         273.1       270.002       262.348       245.144       238.784
         1.79       273.098       269.913       262.315       245.161       238.763
          1.8       273.097       269.849        262.28       245.141       238.637
         1.81       273.096       269.778       262.249        245.05       238.611
         1.82       273.094       269.691        262.22       245.083       238.524
         1.83       273.092       269.604       262.192       245.022       238.491
         1.84       273.091       269.556       262.164       244.958       238.577
         1.85       273.089       269.476       262.129        244.98       238.502
         1.86       273.087       269.394       262.095       244.923       238.429
         1.87       273.086       269.336       262.061       244.854       238.511
         1.88       273.084       269.274       262.027        244.89       238.362
         1.89       273.082       269.196       261.993         244.8       238.311
          1.9        273.08       269.153       261.959       244.761       238.413
         1.91       273.078       269.078       261.926       244.791       238.289
         1.92       273.076       269.007       261.892       244.701       238.254
         1.93       273.073       268.962       261.858       244.652       238.275
         1.94       273.073       268.885       261.825       244.676       238.183
         1.95        273.07       268.847       261.799        244.64       238.166
         1.96       273.068        268.77       261.774       244.537       238.228
         1.97       273.066       268.733       261.746       244.549       238.124
         1.98       273.064       268.676       261.713       244.559       238.031
         1.99       273.062       268.626        261.68       244.479       238.132
            2        273.06       268.592       261.647       244.422       238.049
         2.01       273.059       268.523       261.614       244.436       237.928
         2.02       273.057       268.489       261.581       244.422       237.966
         2.03       273.055        268.42       261.548       244.328       238.014
         2.04       273.053       268.387        261.52       244.317       237.906
         2.05       273.051       268.354       261.499       244.331       237.801
         2.06       273.049       268.286       261.471       244.289         237.9
         2.07       273.048       268.253       261.439       244.189       237.861
         2.08       273.046       268.221       261.406       244.198       237.755
         2.09       273.044       268.153       261.373       244.216       237.707
          2.1       273.042       268.121       261.341       244.163       237.796
         2.11       273.039       268.089        261.31       244.088       237.724
         2.12       273.038       268.054        261.29       244.061       237.642
         2.13       273.035       267.989       261.266       244.079       237.569
         2.14       273.033        267.96       261.234       244.072       237.627
         2.15        273.03       267.929       261.202       243.977       237.646
         2.16       273.027         267.9        261.17       243.924       237.562
         2.17       273.025       267.837       261.138       243.927       237.439
         2.18       273.022       267.805       261.106       243.935         237.5
         2.19       273.019       267.777       261.077       243.915       237.548
          2.2       273.015       267.749       261.058       243.837       237.489
         2.21       273.013       267.718       261.032       243.785       237.384
         2.22       273.009       267.684       261.004       243.767       237.301
         2.23       273.005       267.631       260.978       243.705       237.328
         2.24       273.002       267.603       260.949       243.686       237.303
         2.25       272.998       267.575       260.918       243.686       237.283
         2.26       272.994       267.548       260.889       243.672       237.331
         2.27       272.991        267.52       260.861       243.674       237.331
         2.28       272.986       267.493       260.829       243.673       237.264
         2.29       272.982       267.466       260.798       243.615       237.232
          2.3       272.978       267.423       260.774       243.561       237.141
         2.31       272.937        267.38       260.754       243.509       237.082
         2.32       272.933       267.353       260.728       243.453       237.004
         2.33       272.929       267.326         260.7       243.444       237.036
         2.34       272.888       267.299       260.669       243.451       237.045
         2.35       272.884       267.271       260.638       243.462       237.106
         2.36        272.88       267.245       260.607       243.451       237.089
         2.37       272.838       267.218       260.583       243.398       237.014
         2.38       272.835       267.191       260.566       243.333       236.934
         2.39       272.794       267.164       260.535       243.269       236.838
          2.4        272.79       267.138       260.504       243.233       236.801
         2.41       272.786       267.111       260.473       243.218       236.818
         2.42       272.745       267.085       260.455        243.21       236.883
         2.43       272.741       267.058       260.432       243.215       236.927
         2.44       272.737       267.032       260.401       243.228       236.891
         2.45       272.696       267.006        260.37       243.205        236.84
         2.46       272.693       266.979        260.34        243.19       236.743
         2.47       272.689       266.953        260.33       243.146       236.698
         2.48       272.648       266.927       260.299       243.088       236.639
         2.49       272.645       266.901       260.268       243.071       236.595
          2.5       272.641       266.875        260.24        243.06       236.538
         2.51       272.601       266.849       260.213       243.052       236.515
         2.52       272.598       266.823       260.195        243.02       236.462
         2.53       272.594       266.798       260.168       242.975       236.469
         2.54       272.554       266.772       260.137        242.94       236.477
         2.55       272.551       266.749       260.119       242.914       236.494
         2.56       272.547       266.745       260.096       242.887       236.478
         2.57       272.507       266.726       260.072       242.857       236.452
         2.58       272.505         266.7       260.041       242.829       236.449
         2.59       272.501       266.674       260.014        242.81       236.424
          2.6       272.498       266.652       259.986       242.781       236.406
         2.61       272.458       266.626       259.956       242.707       236.377
         2.62       272.455       266.601       259.939       242.637       236.342
         2.63       272.452       266.575       259.923       242.669       236.372
         2.64       272.412       266.549       259.896       242.712       236.417
         2.65       272.409       266.527       259.869       242.669       236.259
         2.66       272.407       266.502       259.841       242.606       236.132
         2.67       272.404       266.479       259.814       242.555       236.144
         2.68       272.368       266.454       259.793       242.516       236.192
         2.69       272.365       266.432       259.769       242.479       236.231
          2.7       272.364       266.407       259.745       242.454       236.235
         2.71       272.361        266.41       259.724       242.548       236.235
         2.72       272.359       266.391       259.701       242.465        236.15
         2.73       272.319       266.365       259.674       242.376       235.971
         2.74       272.318       266.343       259.653       242.339       236.017
         2.75       272.315       266.318       259.628        242.37       236.102
         2.76       272.313       266.293       259.604       242.388       236.083
         2.77       272.311       266.272       259.577       242.391       235.945
         2.78       272.275       266.247        259.55       242.339       235.855
         2.79       272.273       266.221       259.526       242.286       235.786
          2.8       272.272       266.199       259.505       242.242       235.843
         2.81        272.27       266.175       259.484       242.178       235.895
         2.82       272.268       266.153       259.457       242.137       235.922
         2.83       272.233       266.135       259.434       242.123        235.93
         2.84        272.23       266.135        259.41       242.117       235.902
         2.85       272.229       266.113       259.386       242.135       235.785
         2.86       272.228       266.089       259.366       242.152        235.75
         2.87       272.227       266.067       259.334       242.151       235.688
         2.88       272.226       266.043       259.312       242.116       235.604
         2.89       272.225       266.021       259.291       242.066       235.559
          2.9       272.224       265.997        259.27       242.012       235.582
         2.91       272.223       265.975        259.25       241.948       235.585
         2.92       272.188       265.951       259.229       241.895       235.631
         2.93       272.187       265.929       259.211       241.948       235.676
         2.94       272.185       265.915       259.182       241.983       235.697
         2.95       272.184       265.912       259.153       241.893        235.53
         2.96       272.183       265.891       259.125       241.821       235.397
         2.97       272.182       265.867       259.104       241.782       235.484
         2.98       272.182       265.846       259.083       241.856       235.579
         2.99       272.182       265.822       259.063       241.848       235.546
            3       272.183       265.801        259.04       241.741       235.388
         3.01       272.184       265.777       259.013       241.702       235.297
         3.02       272.184       265.756       259.001       241.792       235.454
         3.03       272.184       265.732        258.98       241.727       235.488
         3.04       272.183        265.71       258.958       241.619       235.274
         3.05       272.182       265.693       258.928       241.628       235.246
         3.06        272.18       265.693       258.901       241.692       235.414
         3.07        272.18       265.673       258.878        241.64        235.36
         3.08       272.179       265.652       258.867       241.551       235.171
         3.09       272.179       265.628       258.843       241.511       235.157
          3.1       272.144       265.607       258.816        241.62         235.3
         3.11       272.142       265.583       258.799       241.553         235.3
         3.12        272.14       265.562       258.772       241.481       235.116
         3.13       272.138       265.542       258.756       241.401       235.085
         3.14       272.136       265.521       258.735       241.503       235.178
         3.15         272.1       265.497       258.715       241.485       235.272
         3.16       272.098       265.476       258.691       241.394       235.058
         3.17       272.096       265.455        258.67       241.323       234.953
         3.18       272.095       265.434       258.644       241.413       235.076
         3.19       272.093        265.41       258.626       241.344       235.174
          3.2       272.092        265.39       258.596       241.271       235.001
         3.21       272.057       265.369       258.586       241.345       234.882
         3.22       272.055       265.353       258.567       241.205       235.139
         3.23       272.053       265.344       258.535       241.341       234.807
         3.24       272.049       265.333        258.51       241.158        235.03
         3.25       272.008       265.315         258.5       241.284       234.861
         3.26       272.004       265.295       258.467        241.14       234.933
         3.27       271.961       265.274        258.46        241.21        234.84
         3.28       271.956       265.253       258.442        241.16       234.859
         3.29       271.912       265.233       258.415       241.061       234.865
          3.3       271.906       265.209       258.383       241.143       234.665
         3.31       271.863       265.189       258.377       241.101       234.909
         3.32       271.815       265.165       258.341       240.991       234.754
         3.33       271.811       265.145       258.333       241.128       234.629
         3.34       271.767       265.125       258.305       240.952       234.854
         3.35       271.721       265.104       258.291       241.073       234.664
         3.36       271.713       265.084       258.264       240.936       234.728
         3.37       271.668       265.064        258.25        240.94       234.641
         3.38       271.622       265.043       258.221        241.04       234.748
         3.39       271.575       265.023       258.196       240.854       234.456
          3.4       271.528       265.002       258.182       240.837       234.784
         3.41        271.48       264.982       258.167       240.931       234.589
         3.42       271.432       264.949       258.148       240.948       234.438
         3.43       271.381       264.929       258.114       240.757       234.725
         3.44       271.332       264.908         258.1       240.769       234.633
         3.45       271.279       264.888       258.085       240.778       234.313
         3.46       271.226       264.868       258.069        240.87        234.55
         3.47       271.172        264.86       258.032       240.858       234.582
         3.48       271.091       264.843       258.018       240.647        234.48
         3.49       271.022       264.823       258.003       240.665       234.474
          3.5       270.967       264.809       257.989       240.741       234.419
         3.51       270.911       264.788       257.951       240.691       234.361
         3.52       270.815       264.768       257.936       240.637       234.446
         3.53       270.759       264.748       257.922       240.709       234.403