# Probe 0 (1 0 0)
# Probe 1 (140 0 0)
# Probe 2 (200 0 0)
# Probe 3 (250 0 0)
# Probe 4 (255 0 0)
#       Probe             0             1             2             3             4
#        Time
            0             (0 0 0)             (0 0 0)             (0 0 0)             (0 0 0)             (0 0 0)
         0.01             (-1.31528e-10 0 0)             (2.81915e-11 0 0)             (2.40633e-10 0 0)             (3.76474e-09 0 0)             (21.2988 0 0)
         0.02             (-2.0291e-10 0 0)             (-1.99591e-10 0 0)             (2.38607e-10 0 0)             (0.000866752 0 0)             (43.7413 0 0)
         0.03             (-2.03039e-10 0 0)             (1.65366e-10 0 0)             (-6.78818e-10 0 0)             (0.110151 0 0)             (51.2069 0 0)
         0.04             (-2.1381e-10 0 0)             (-3.6361e-11 0 0)             (-2.08899e-10 0 0)             (1.46458 0 0)             (54.9101 0 0)
