# Probe 0 (1 0 0)
# Probe 1 (140 0 0)
# Probe 2 (200 0 0)
# Probe 3 (250 0 0)
# Probe 4 (255 0 0)
#       Probe             0             1             2             3             4
#        Time
            0             (0 0 0)             (0 0 0)             (0 0 0)             (0 0 0)             (0 0 0)
         0.01             (-5.62079e-11 0 0)             (3.15655e-12 0 0)             (2.40395e-11 0 0)             (8.02962e-10 0 0)             (15.4665 0 0)
         0.02             (-1.31167e-10 0 0)             (-3.69156e-11 0 0)             (-3.16678e-11 0 0)             (0.000205054 0 0)             (40.0969 0 0)
         0.03             (-1.69933e-10 0 0)             (1.33769e-11 0 0)             (-1.09885e-10 0 0)             (0.0442632 0 0)             (48.6106 0 0)
         0.04             (-1.94751e-10 0 0)             (7.72585e-11 0 0)             (-3.76707e-11 0 0)             (0.886045 0 0)             (52.78 0 0)
