# Probe 0 (1 0 0)
# Probe 1 (140 0 0)
# Probe 2 (200 0 0)
# Probe 3 (250 0 0)
# Probe 4 (255 0 0)
#       Probe             0             1             2             3             4
#        Time
            0             (0 0 0)             (0 0 0)             (0 0 0)             (0 0 0)             (0 0 0)
         0.01             (-2.66234e-10 0 0)             (-1.00228e-10 0 0)             (-1.58318e-10 0 0)             (2.01987e-08 0 0)             (19.88 0 0)
         0.02             (2.74782e-10 0 0)             (-5.34809e-11 0 0)             (-8.64499e-10 0 0)             (0.0206021 0 0)             (41.5068 0 0)
         0.03             (-1.92161e-10 0 0)             (-5.48471e-11 0 0)             (-1.41803e-09 0 0)             (1.05862 0 0)             (49.8528 0 0)
         0.04             (-2.53445e-10 0 0)             (1.77586e-10 0 0)             (-1.4849e-10 0 0)             (2.45314 0 0)             (54.6025 0 0)
         0.05             (5.05126e-10 0 0)             (-7.1202e-10 0 0)             (1.1194e-09 0 0)             (4.31817 0 0)             (57.6544 0 0)
         0.06             (2.31447e-10 0 0)             (2.38766e-09 0 0)             (2.55847e-09 0 0)             (9.20987 0 0)             (59.401 0 0)
         0.07             (-7.82397e-10 0 0)             (-1.37137e-09 0 0)             (2.97492e-09 0 0)             (15.5776 0 0)             (60.3723 0 0)
         0.08             (-9.18065e-11 0 0)             (3.90767e-11 0 0)             (3.44917e-09 0 0)             (21.2783 0 0)             (60.8964 0 0)
         0.09             (6.72098e-10 0 0)             (-4.1286e-10 0 0)             (1.68673e-09 0 0)             (25.889 0 0)             (61.1753 0 0)
          0.1             (-1.04424e-09 0 0)             (-2.24057e-10 0 0)             (-8.55264e-10 0 0)             (29.5778 0 0)             (61.3563 0 0)
         0.11             (-9.86072e-10 0 0)             (1.20763e-09 0 0)             (-3.41312e-09 0 0)             (32.5664 0 0)             (61.487 0 0)
         0.12             (1.22319e-09 0 0)             (-3.31592e-09 0 0)             (-5.04589e-09 0 0)             (35.0286 0 0)             (61.6184 0 0)
         0.13             (5.41508e-10 0 0)             (2.56893e-09 0 0)             (-1.11657e-11 0 0)             (37.0845 0 0)             (61.8021 0 0)
         0.14             (-1.30839e-09 0 0)             (-2.61858e-09 0 0)             (5.6188e-09 0 0)             (38.8172 0 0)             (62.0394 0 0)
         0.15             (-3.11966e-10 0 0)             (3.87863e-09 0 0)             (2.61905e-09 0 0)             (40.3034 0 0)             (62.3247 0 0)
         0.16             (1.37504e-09 0 0)             (-4.06919e-09 0 0)             (-7.72171e-09 0 0)             (41.5798 0 0)             (62.6272 0 0)
         0.17             (-6.48041e-10 0 0)             (4.00837e-09 0 0)             (5.47069e-09 0 0)             (42.6657 0 0)             (62.9098 0 0)
         0.18             (-1.55385e-09 0 0)             (-2.90869e-09 0 0)             (1.21802e-09 0 0)             (43.5772 0 0)             (63.2101 0 0)
         0.19             (1.06538e-09 0 0)             (2.11425e-09 0 0)             (-2.45548e-09 0 0)             (44.3479 0 0)             (63.5361 0 0)
          0.2             (1.47597e-09 0 0)             (6.0075e-10 0 0)             (9.4299e-09 0 0)             (45.0042 0 0)             (63.8727 0 0)
         0.21             (-8.98142e-10 0 0)             (1.11344e-11 0 0)             (4.39787e-08 0 0)             (45.5663 0 0)             (64.2147 0 0)
         0.22             (-3.06556e-10 0 0)             (2.08707e-09 0 0)             (1.77566e-06 0 0)             (46.0563 0 0)             (64.5148 0 0)
         0.23             (1.58704e-09 0 0)             (-3.36497e-09 0 0)             (3.72579e-05 0 0)             (46.4978 0 0)             (64.779 0 0)
         0.24             (-2.45829e-10 0 0)             (3.69336e-09 0 0)             (0.00045891 0 0)             (46.9044 0 0)             (65.0448 0 0)
         0.25             (-1.44689e-09 0 0)             (-3.30805e-09 0 0)             (0.00326314 0 0)             (47.2876 0 0)             (65.3144 0 0)
         0.26             (1.0637e-09 0 0)             (2.2971e-09 0 0)             (0.0132103 0 0)             (47.6535 0 0)             (65.5848 0 0)
         0.27             (9.7361e-10 0 0)             (-3.9794e-10 0 0)             (0.0316109 0 0)             (48.0056 0 0)             (65.857 0 0)
         0.28             (-1.18766e-09 0 0)             (1.53655e-09 0 0)             (0.0524603 0 0)             (48.3458 0 0)             (66.0885 0 0)
         0.29             (-2.19238e-10 0 0)             (-2.13437e-09 0 0)             (0.07465 0 0)             (48.6743 0 0)             (66.2844 0 0)
          0.3             (1.29709e-09 0 0)             (-3.42089e-10 0 0)             (0.10089 0 0)             (48.9935 0 0)             (66.4859 0 0)
         0.31             (-6.78084e-10 0 0)             (1.72621e-09 0 0)             (0.132206 0 0)             (49.3043 0 0)             (66.6963 0 0)
         0.32             (-1.09592e-09 0 0)             (-5.67005e-09 0 0)             (0.169128 0 0)             (49.6062 0 0)             (66.9087 0 0)
         0.33             (1.25113e-09 0 0)             (4.35149e-09 0 0)             (0.212117 0 0)             (49.8993 0 0)             (67.1191 0 0)
         0.34             (7.69039e-10 0 0)             (-4.41345e-09 0 0)             (0.261488 0 0)             (50.1826 0 0)             (67.3251 0 0)
         0.35             (-1.10561e-09 0 0)             (1.99825e-09 0 0)             (0.317217 0 0)             (50.4552 0 0)             (67.477 0 0)
         0.36             (-7.69503e-11 0 0)             (-2.6528e-10 0 0)             (0.379007 0 0)             (50.7162 0 0)             (67.6208 0 0)
         0.37             (1.17957e-09 0 0)             (-1.05027e-11 0 0)             (0.446049 0 0)             (50.965 0 0)             (67.7787 0 0)
         0.38             (-6.88911e-10 0 0)             (1.25848e-09 0 0)             (0.517175 0 0)             (51.2026 0 0)             (67.9474 0 0)
         0.39             (-6.30666e-10 0 0)             (-2.49165e-09 0 0)             (0.590764 0 0)             (51.4307 0 0)             (68.1195 0 0)
          0.4             (8.15185e-10 0 0)             (5.10146e-09 0 0)             (0.664417 0 0)             (51.6498 0 0)             (68.2938 0 0)
         0.41             (4.43088e-12 0 0)             (-3.90705e-09 0 0)             (0.735695 0 0)             (51.8599 0 0)             (68.4445 0 0)
         0.42             (-4.81333e-10 0 0)             (7.16972e-09 0 0)             (0.802363 0 0)             (52.0614 0 0)             (68.5525 0 0)
         0.43             (1.46979e-09 0 0)             (1.54919e-11 0 0)             (0.862455 0 0)             (52.2542 0 0)             (68.6693 0 0)
         0.44             (3.96196e-10 0 0)             (3.61229e-09 0 0)             (0.91809 0 0)             (52.4393 0 0)             (68.8024 0 0)
         0.45             (-1.61699e-09 0 0)             (1.11937e-08 0 0)             (1.06303 0 0)             (52.6178 0 0)             (68.9453 0 0)
         0.46             (-1.67768e-11 0 0)             (1.7364e-08 0 0)             (1.1459 0 0)             (52.7894 0 0)             (69.0916 0 0)
         0.47             (1.5298e-09 0 0)             (1.3944e-07 0 0)             (1.34482 0 0)             (52.9531 0 0)             (69.2439 0 0)
         0.48             (-4.28251e-10 0 0)             (9.26692e-07 0 0)             (1.46156 0 0)             (53.1095 0 0)             (69.3547 0 0)
         0.49             (-7.18378e-10 0 0)             (5.07203e-06 0 0)             (1.59167 0 0)             (53.2605 0 0)             (69.4424 0 0)
          0.5             (9.04385e-10 0 0)             (2.34463e-05 0 0)             (1.73748 0 0)             (53.4073 0 0)             (69.5447 0 0)
         0.51             (-1.41914e-10 0 0)             (9.16864e-05 0 0)             (1.87292 0 0)             (53.5492 0 0)             (69.6615 0 0)
         0.52             (-1.34007e-09 0 0)             (0.000302647 0 0)             (1.98336 0 0)             (53.6848 0 0)             (69.7866 0 0)
         0.53             (1.93616e-10 0 0)             (0.000841292 0 0)             (2.06697 0 0)             (53.8142 0 0)             (69.9154 0 0)
         0.54             (1.92459e-10 0 0)             (0.0019677 0 0)             (2.18415 0 0)             (53.9388 0 0)             (70.0508 0 0)
         0.55             (-1.12079e-09 0 0)             (0.00388676 0 0)             (2.21328 0 0)             (54.0602 0 0)             (70.1434 0 0)
         0.56             (1.99263e-10 0 0)             (0.00656854 0 0)             (2.30601 0 0)             (54.1782 0 0)             (70.2122 0 0)
         0.57             (1.13932e-09 0 0)             (0.00975353 0 0)             (2.28847 0 0)             (54.2919 0 0)             (70.2976 0 0)
         0.58             (-4.15609e-10 0 0)             (0.0132176 0 0)             (2.31762 0 0)             (54.4007 0 0)             (70.4005 0 0)
         0.59             (-5.10785e-10 0 0)             (0.0169739 0 0)             (2.38153 0 0)             (54.505 0 0)             (70.5137 0 0)
          0.6             (7.70797e-10 0 0)             (0.0211934 0 0)             (2.35578 0 0)             (54.6062 0 0)             (70.6309 0 0)
         0.61             (1.30685e-10 0 0)             (0.0260291 0 0)             (2.31457 0 0)             (54.7052 0 0)             (70.7552 0 0)
         0.62             (-9.78588e-10 0 0)             (0.0315608 0 0)             (2.46944 0 0)             (54.8017 0 0)             (70.839 0 0)
         0.63             (3.97962e-10 0 0)             (0.0378458 0 0)             (2.66878 0 0)             (54.8946 0 0)             (70.8994 0 0)
         0.64             (6.0174e-10 0 0)             (0.0449609 0 0)             (2.89812 0 0)             (54.9839 0 0)             (70.9793 0 0)
         0.65             (-7.56805e-10 0 0)             (0.0529992 0 0)             (3.06861 0 0)             (55.0699 0 0)             (71.0783 0 0)
         0.66             (1.43323e-10 0 0)             (0.0620568 0 0)             (3.36679 0 0)             (55.1525 0 0)             (71.1879 0 0)
         0.67             (4.79075e-10 0 0)             (0.0722293 0 0)             (3.64401 0 0)             (55.2306 0 0)             (71.3027 0 0)
         0.68             (-7.22488e-10 0 0)             (0.08362 0 0)             (3.99436 0 0)             (55.298 0 0)             (71.4239 0 0)
         0.69             (4.67771e-10 0 0)             (0.0963348 0 0)             (4.40805 0 0)             (55.334 0 0)             (71.4906 0 0)
          0.7             (7.79875e-10 0 0)             (0.110482 0 0)             (4.87129 0 0)             (55.3114 0 0)             (71.5545 0 0)
         0.71             (-1.37315e-09 0 0)             (0.126167 0 0)             (5.3412 0 0)             (55.233 0 0)             (71.6332 0 0)
         0.72             (-8.98253e-10 0 0)             (0.143488 0 0)             (5.90154 0 0)             (55.1344 0 0)             (71.704 0 0)
         0.73             (7.99607e-10 0 0)             (0.162537 0 0)             (6.42706 0 0)             (55.0414 0 0)             (71.7381 0 0)
         0.74             (1.7005e-10 0 0)             (0.183391 0 0)             (6.99832 0 0)             (54.9534 0 0)             (71.7386 0 0)
         0.75             (-5.00787e-10 0 0)             (0.206111 0 0)             (7.57492 0 0)             (54.8658 0 0)             (71.6913 0 0)
         0.76             (6.11775e-10 0 0)             (0.230725 0 0)             (8.15316 0 0)             (54.7745 0 0)             (71.6198 0 0)
         0.77             (-3.55194e-11 0 0)             (0.25721 0 0)             (8.72951 0 0)             (54.6637 0 0)             (71.5831 0 0)
         0.78             (-6.49858e-10 0 0)             (0.285568 0 0)             (9.30169 0 0)             (54.7034 0 0)             (71.5783 0 0)
         0.79             (3.8069e-10 0 0)             (0.315789 0 0)             (9.8502 0 0)             (54.7221 0 0)             (71.5935 0 0)
          0.8             (-2.1355e-10 0 0)             (0.347737 0 0)             (10.3506 0 0)             (54.7747 0 0)             (71.6155 0 0)
         0.81             (-6.98146e-10 0 0)             (0.38114 0 0)             (10.9263 0 0)             (54.7994 0 0)             (71.579 0 0)
         0.82             (3.99798e-10 0 0)             (0.41583 0 0)             (11.372 0 0)             (54.813 0 0)             (71.5574 0 0)
         0.83             (1.40044e-10 0 0)             (0.451649 0 0)             (11.9114 0 0)             (54.8253 0 0)             (71.5554 0 0)
         0.84             (-4.90949e-10 0 0)             (0.488249 0 0)             (12.3389 0 0)             (54.6797 0 0)             (71.5949 0 0)
         0.85             (4.58301e-10 0 0)             (0.52544 0 0)             (12.8104 0 0)             (54.7943 0 0)             (71.6615 0 0)
         0.86             (-3.201e-10 0 0)             (0.562914 0 0)             (13.2544 0 0)             (54.8791 0 0)             (71.6678 0 0)
         0.87             (-1.40763e-10 0 0)             (0.599992 0 0)             (13.6295 0 0)             (54.915 0 0)             (71.7529 0 0)
         0.88             (2.26352e-10 0 0)             (0.635094 0 0)             (14.0617 0 0)             (54.9454 0 0)             (71.7468 0 0)
         0.89             (-5.4183e-10 0 0)             (0.668291 0 0)             (14.4726 0 0)             (54.8061 0 0)             (71.8711 0 0)
          0.9             (2.70312e-10 0 0)             (0.700017 0 0)             (14.8064 0 0)             (55.0741 0 0)             (71.8946 0 0)
         0.91             (1.41141e-10 0 0)             (0.730576 0 0)             (15.1732 0 0)             (54.8396 0 0)             (71.9678 0 0)
         0.92             (-4.732e-10 0 0)             (0.759063 0 0)             (15.5643 0 0)             (55.022 0 0)             (72.0917 0 0)
         0.93             (3.72577e-10 0 0)             (0.785266 0 0)             (15.8859 0 0)             (54.885 0 0)             (72.0159 0 0)
         0.94             (4.12183e-10 0 0)             (0.809025 0 0)             (16.1739 0 0)             (55.2059 0 0)             (71.9896 0 0)
         0.95             (-2.10228e-10 0 0)             (0.83331 0 0)             (16.5058 0 0)             (54.9623 0 0)             (71.9517 0 0)
         0.96             (5.62919e-10 0 0)             (0.859783 0 0)             (16.8399 0 0)             (55.0202 0 0)             (72.0801 0 0)
         0.97             (2.57268e-10 0 0)             (0.974652 0 0)             (17.1125 0 0)             (55.0541 0 0)             (71.98 0 0)
         0.98             (-2.69717e-10 0 0)             (1.05677 0 0)             (17.3672 0 0)             (55.1505 0 0)             (71.9723 0 0)
         0.99             (9.31438e-10 0 0)             (1.04207 0 0)             (17.6691 0 0)             (55.1684 0 0)             (71.9899 0 0)
            1             (8.09517e-10 0 0)             (1.15043 0 0)             (17.9291 0 0)             (55.3586 0 0)             (72.0827 0 0)
         1.01             (3.07718e-10 0 0)             (1.26011 0 0)             (18.1432 0 0)             (55.2292 0 0)             (71.9799 0 0)
         1.02             (1.19e-09 0 0)             (1.27007 0 0)             (18.4171 0 0)             (55.4325 0 0)             (72.0698 0 0)
         1.03             (1.60948e-09 0 0)             (1.36981 0 0)             (18.6452 0 0)             (55.2051 0 0)             (72.0566 0 0)
         1.04             (2.00048e-09 0 0)             (1.44092 0 0)             (18.8432 0 0)             (55.3247 0 0)             (71.9908 0 0)
         1.05             (3.17388e-09 0 0)             (1.50967 0 0)             (19.0868 0 0)             (55.4882 0 0)             (72.0586 0 0)
         1.06             (6.50134e-09 0 0)             (1.61043 0 0)             (19.2572 0 0)             (55.2901 0 0)             (72.1274 0 0)
         1.07             (1.35241e-08 0 0)             (1.6436 0 0)             (19.4792 0 0)             (55.4485 0 0)             (72.123 0 0)
         1.08             (3.28663e-08 0 0)             (1.72448 0 0)             (19.6584 0 0)             (55.5018 0 0)             (72.1423 0 0)
         1.09             (8.85575e-08 0 0)             (1.78085 0 0)             (19.84 0 0)             (55.3744 0 0)             (72.1559 0 0)
          1.1             (2.13765e-07 0 0)             (1.84076 0 0)             (20.0386 0 0)             (55.4739 0 0)             (71.9202 0 0)
         1.11             (4.66943e-07 0 0)             (1.91841 0 0)             (20.176 0 0)             (55.6147 0 0)             (72.2411 0 0)
         1.12             (9.64179e-07 0 0)             (1.92643 0 0)             (20.3563 0 0)             (55.5056 0 0)             (72.0466 0 0)
         1.13             (1.9013e-06 0 0)             (1.98623 0 0)             (20.514 0 0)             (55.4943 0 0)             (71.9247 0 0)
         1.14             (3.59405e-06 0 0)             (2.0491 0 0)             (20.6495 0 0)             (55.3148 0 0)             (72.1025 0 0)
         1.15             (6.51796e-06 0 0)             (2.07827 0 0)             (20.821 0 0)             (55.7631 0 0)             (72.0977 0 0)
         1.16             (1.13375e-05 0 0)             (2.06572 0 0)             (20.9333 0 0)             (55.5376 0 0)             (71.9298 0 0)
         1.17             (1.89065e-05 0 0)             (2.1017 0 0)             (21.0951 0 0)             (55.5817 0 0)             (71.943 0 0)
         1.18             (3.02176e-05 0 0)             (2.16092 0 0)             (21.2001 0 0)             (55.8533 0 0)             (72.2898 0 0)
         1.19             (4.62841e-05 0 0)             (2.20523 0 0)             (21.3509 0 0)             (55.8226 0 0)             (72.0101 0 0)
          1.2             (6.79532e-05 0 0)             (2.18102 0 0)             (21.4645 0 0)             (55.5773 0 0)             (72.176 0 0)
         1.21             (9.56861e-05 0 0)             (2.18721 0 0)             (21.5749 0 0)             (55.6615 0 0)             (72.3124 0 0)
         1.22             (0.000129373 0 0)             (2.19098 0 0)             (21.6976 0 0)             (55.8981 0 0)             (72.1738 0 0)
         1.23             (0.000168276 0 0)             (2.19292 0 0)             (21.7861 0 0)             (55.6397 0 0)             (71.9541 0 0)
         1.24             (0.000211172 0 0)             (2.19342 0 0)             (21.9166 0 0)             (55.6118 0 0)             (72.162 0 0)
         1.25             (0.000256691 0 0)             (2.20097 0 0)             (22.0122 0 0)             (55.9979 0 0)             (72.27 0 0)
         1.26             (0.000303773 0 0)             (2.19895 0 0)             (22.093 0 0)             (55.6608 0 0)             (71.9881 0 0)
         1.27             (0.000352041 0 0)             (2.25451 0 0)             (22.214 0 0)             (55.9539 0 0)             (71.8166 0 0)
         1.28             (0.000401964 0 0)             (2.29114 0 0)             (22.2964 0 0)             (55.7201 0 0)             (72.5031 0 0)
         1.29             (0.000454724 0 0)             (2.27383 0 0)             (22.3809 0 0)             (56.0714 0 0)             (72.1044 0 0)
          1.3             (0.000511866 0 0)             (2.26426 0 0)             (22.4766 0 0)             (55.8617 0 0)             (72.4936 0 0)
         1.31             (0.000574858 0 0)             (2.26697 0 0)             (22.5518 0 0)             (55.7265 0 0)             (72.0784 0 0)
         1.32             (0.000644755 0 0)             (2.26992 0 0)             (22.6466 0 0)             (55.6495 0 0)             (72.5062 0 0)
         1.33             (0.000722068 0 0)             (2.26817 0 0)             (22.7223 0 0)             (55.9643 0 0)             (72.2004 0 0)
         1.34             (0.000806907 0 0)             (2.26774 0 0)             (22.7902 0 0)             (55.9923 0 0)             (72.2212 0 0)
         1.35             (0.000899248 0 0)             (2.26749 0 0)             (22.8673 0 0)             (55.6877 0 0)             (72.1159 0 0)
         1.36             (0.000999211 0 0)             (2.26883 0 0)             (22.9435 0 0)             (56.1076 0 0)             (72.267 0 0)
         1.37             (0.0011072 0 0)             (2.28901 0 0)             (23.018 0 0)             (56.0201 0 0)             (72.4216 0 0)
         1.38             (0.00122392 0 0)             (2.24478 0 0)             (23.0813 0 0)             (55.7367 0 0)             (72.1273 0 0)
         1.39             (0.00135024 0 0)             (2.33707 0 0)             (23.1616 0 0)             (56.1962 0 0)             (72.3184 0 0)
          1.4             (0.0014871 0 0)             (2.41873 0 0)             (23.2204 0 0)             (55.8245 0 0)             (72.5314 0 0)
         1.41             (0.00163537 0 0)             (2.55649 0 0)             (23.2839 0 0)             (56.0324 0 0)             (72.0432 0 0)
         1.42             (0.00179589 0 0)             (2.64563 0 0)             (23.3409 0 0)             (55.986 0 0)             (72.6528 0 0)
         1.43             (0.00196948 0 0)             (2.6824 0 0)             (23.3985 0 0)             (56.1094 0 0)             (72.2426 0 0)
         1.44             (0.00215699 0 0)             (2.77187 0 0)             (23.4507 0 0)             (55.9246 0 0)             (72.0979 0 0)
         1.45             (0.00235941 0 0)             (2.84768 0 0)             (23.5163 0 0)             (55.9576 0 0)             (72.3577 0 0)
         1.46             (0.00257779 0 0)             (2.99531 0 0)             (23.5716 0 0)             (56.1842 0 0)             (72.0778 0 0)
         1.47             (0.00281326 0 0)             (3.10328 0 0)             (23.6323 0 0)             (56.2541 0 0)             (72.3156 0 0)
         1.48             (0.00306702 0 0)             (3.21808 0 0)             (23.6758 0 0)             (56.3214 0 0)             (72.1028 0 0)
         1.49             (0.00334028 0 0)             (3.34332 0 0)             (23.7241 0 0)             (56.1412 0 0)             (72.7304 0 0)
          1.5             (0.00363432 0 0)             (3.48867 0 0)             (23.7752 0 0)             (55.9857 0 0)             (72.6039 0 0)
         1.51             (0.00395043 0 0)             (3.68608 0 0)             (23.831 0 0)             (56.3438 0 0)             (72.4376 0 0)
         1.52             (0.00428998 0 0)             (3.82775 0 0)             (23.8681 0 0)             (56.0662 0 0)             (72.267 0 0)
         1.53             (0.00465436 0 0)             (4.02179 0 0)             (23.9094 0 0)             (56.1743 0 0)             (72.552 0 0)
         1.54             (0.00504503 0 0)             (4.20233 0 0)             (23.9643 0 0)             (56.2957 0 0)             (72.4785 0 0)
         1.55             (0.00546346 0 0)             (4.41088 0 0)             (23.9976 0 0)             (56.0791 0 0)             (72.5352 0 0)
         1.56             (0.00591119 0 0)             (4.61464 0 0)             (24.0458 0 0)             (56.4366 0 0)             (72.3405 0 0)
         1.57             (0.0063898 0 0)             (4.80927 0 0)             (24.0859 0 0)             (56.0672 0 0)             (72.5112 0 0)
         1.58             (0.00690091 0 0)             (5.08124 0 0)             (24.1326 0 0)             (56.396 0 0)             (72.5276 0 0)
         1.59             (0.0074461 0 0)             (5.28481 0 0)             (24.1671 0 0)             (56.2284 0 0)             (72.2244 0 0)
          1.6             (0.00802683 0 0)             (5.50168 0 0)             (24.2068 0 0)             (56.2789 0 0)             (72.4663 0 0)
         1.61             (0.00864437 0 0)             (5.77596 0 0)             (24.2468 0 0)             (56.4243 0 0)             (72.2228 0 0)
         1.62             (0.0092998 0 0)             (6.02703 0 0)             (24.2899 0 0)             (56.1291 0 0)             (72.2686 0 0)
         1.63             (0.00999405 0 0)             (6.26875 0 0)             (24.3253 0 0)             (56.5218 0 0)             (72.7208 0 0)
         1.64             (0.0107279 0 0)             (6.53701 0 0)             (24.3587 0 0)             (56.1346 0 0)             (72.3469 0 0)
         1.65             (0.011502 0 0)             (6.78031 0 0)             (24.3921 0 0)             (56.5003 0 0)             (72.8232 0 0)
         1.66             (0.0123166 0 0)             (7.02247 0 0)             (24.4282 0 0)             (56.3295 0 0)             (72.3522 0 0)
         1.67             (0.0131717 0 0)             (7.26204 0 0)             (24.4579 0 0)             (56.2318 0 0)             (72.6801 0 0)
         1.68             (0.0140668 0 0)             (7.4952 0 0)             (24.4923 0 0)             (56.5922 0 0)             (72.4503 0 0)
         1.69             (0.015001 0 0)             (7.74934 0 0)             (24.5217 0 0)             (56.1921 0 0)             (72.3069 0 0)
          1.7             (0.0159732 0 0)             (8.00201 0 0)             (24.5448 0 0)             (56.5424 0 0)             (72.5859 0 0)
         1.71             (0.016982 0 0)             (8.24526 0 0)             (24.5797 0 0)             (56.3747 0 0)             (72.3928 0 0)
         1.72             (0.0180255 0 0)             (8.47909 0 0)             (24.6139 0 0)             (56.3293 0 0)             (72.7932 0 0)
         1.73             (0.0191011 0 0)             (8.71599 0 0)             (24.6453 0 0)             (56.6494 0 0)             (72.5068 0 0)
         1.74             (0.0202055 0 0)             (8.94978 0 0)             (24.6767 0 0)             (56.24 0 0)             (72.3382 0 0)
         1.75             (0.0213346 0 0)             (9.16916 0 0)             (24.7071 0 0)             (56.5628 0 0)             (72.9154 0 0)
         1.76             (0.0224835 0 0)             (9.37139 0 0)             (24.7379 0 0)             (56.6204 0 0)             (72.5023 0 0)
         1.77             (0.023647 0 0)             (9.55762 0 0)             (24.7596 0 0)             (56.2601 0 0)             (72.7766 0 0)
         1.78             (0.0248193 0 0)             (9.76399 0 0)             (24.7893 0 0)             (56.6073 0 0)             (72.7176 0 0)
         1.79             (0.025994 0 0)             (9.96971 0 0)             (24.8193 0 0)             (56.6312 0 0)             (72.3768 0 0)
          1.8             (0.0271636 0 0)             (10.171 0 0)             (24.8458 0 0)             (56.286 0 0)             (72.5938 0 0)
         1.81             (0.0283199 0 0)             (10.3647 0 0)             (24.8681 0 0)             (56.6973 0 0)             (72.4333 0 0)
         1.82             (0.0294537 0 0)             (10.5189 0 0)             (24.8918 0 0)             (56.5133 0 0)             (72.3314 0 0)
         1.83             (0.0305552 0 0)             (10.6825 0 0)             (24.9143 0 0)             (56.3559 0 0)             (72.9156 0 0)
         1.84             (0.0316142 0 0)             (10.8875 0 0)             (24.9412 0 0)             (56.7877 0 0)             (72.7232 0 0)
         1.85             (0.0326202 0 0)             (11.0411 0 0)             (24.9709 0 0)             (56.5618 0 0)             (72.7472 0 0)
         1.86             (0.0335623 0 0)             (11.177 0 0)             (24.9978 0 0)             (56.366 0 0)             (73.1603 0 0)
         1.87             (0.0344295 0 0)             (11.3691 0 0)             (25.0226 0 0)             (56.8051 0 0)             (72.4009 0 0)
         1.88             (0.0352104 0 0)             (11.5109 0 0)             (25.0457 0 0)             (56.4817 0 0)             (72.5709 0 0)
         1.89             (0.0358939 0 0)             (11.6322 0 0)             (25.0665 0 0)             (56.5231 0 0)             (73.1752 0 0)
          1.9             (0.0364691 0 0)             (11.8161 0 0)             (25.0862 0 0)             (56.8642 0 0)             (72.4593 0 0)
         1.91             (0.0369252 0 0)             (11.922 0 0)             (25.1157 0 0)             (56.4935 0 0)             (72.6759 0 0)
         1.92             (0.0372521 0 0)             (12.0759 0 0)             (25.1433 0 0)             (56.5259 0 0)             (72.9597 0 0)
         1.93             (0.0374396 0 0)             (12.194 0 0)             (25.1685 0 0)             (56.8796 0 0)             (72.6427 0 0)
         1.94             (0.0340253 0 0)             (12.3214 0 0)             (25.1939 0 0)             (56.718 0 0)             (72.8615 0 0)
         1.95             (0.0341595 0 0)             (12.4434 0 0)             (25.2178 0 0)             (56.4524 0 0)             (73.2363 0 0)
         1.96             (0.0341448 0 0)             (12.5696 0 0)             (25.2417 0 0)             (56.8641 0 0)             (72.5891 0 0)
         1.97             (0.0340291 0 0)             (12.68 0 0)             (25.2592 0 0)             (56.9307 0 0)             (72.7072 0 0)
         1.98             (0.0337519 0 0)             (12.8091 0 0)             (25.2769 0 0)             (56.5071 0 0)             (73.2185 0 0)