# Probe 0 (1 0 0)
# Probe 1 (140 0 0)
# Probe 2 (200 0 0)
# Probe 3 (249.6 0 0)
# Probe 4 (255 0 0)
#       Probe             0             1             2             3             4
#        Time
            0          0.48          0.48          0.48          0.48          0.48
         0.01      0.487759      0.487759      0.487759      0.487759      0.535568
         0.02      0.487759      0.487759      0.487759      0.487759      0.631535
         0.03      0.487759      0.487759      0.487759      0.487774       0.67445
         0.04      0.487759      0.487759      0.487759      0.488318      0.699307
         0.05      0.487759      0.487759      0.487759      0.496249      0.715787
         0.06      0.487759      0.487759      0.487759       0.50473      0.727202
         0.07      0.487759      0.487759      0.487759      0.523346      0.735284
         0.08      0.487759      0.487759      0.487759       0.55186      0.740721
         0.09      0.487759      0.487759      0.487759        0.5779      0.744506
          0.1      0.487759      0.487759      0.487759       0.59943      0.747252
         0.11      0.487759      0.487759      0.487759      0.617351      0.749563
         0.12      0.487759      0.487759      0.487759      0.632586      0.751757
         0.13      0.487759      0.487759      0.487759      0.645753      0.753976
         0.14      0.487759      0.487759      0.487759      0.657291      0.756273
         0.15      0.487759      0.487759      0.487759       0.66752      0.758642
         0.16      0.487759      0.487759      0.487759      0.676646      0.761021
         0.17      0.487759      0.487759      0.487759      0.684825      0.763424
         0.18      0.487759      0.487759      0.487759      0.692152      0.765821
         0.19      0.487759      0.487759      0.487759      0.698745      0.768198
          0.2      0.487759      0.487759      0.487759      0.704601      0.770555
         0.21      0.487759      0.487759      0.487759      0.709786      0.772858
         0.22      0.487759      0.487759      0.487759      0.714429      0.775099
         0.23      0.487759      0.487759      0.487759      0.718606      0.777275
         0.24      0.487759      0.487759      0.487759      0.722411      0.779375
         0.25      0.487759      0.487759      0.487759      0.725912      0.781409
         0.26      0.487759      0.487759      0.487759      0.729157      0.783377
         0.27      0.487759      0.487759      0.487759      0.732179      0.785275
         0.28      0.487759      0.487759      0.487759       0.73502      0.787121
         0.29      0.487759      0.487759      0.487759      0.737735      0.788913
          0.3      0.487759      0.487759      0.487759      0.740364      0.790641
         0.31      0.487759      0.487759      0.487759      0.742914      0.792313
         0.32      0.487759      0.487759      0.487759      0.745374      0.793933
         0.33      0.487759      0.487759       0.48776       0.74773      0.795516
         0.34      0.487759      0.487759       0.48776      0.749977      0.797069
         0.35      0.487759      0.487759      0.487763      0.752127      0.798588
         0.36      0.487759      0.487759      0.487769      0.754205      0.800073
         0.37      0.487759      0.487759      0.487781      0.756241      0.801513
         0.38      0.487759      0.487759      0.487806       0.75825      0.802905
         0.39      0.487759      0.487759      0.487851      0.760241      0.804263
          0.4      0.487759      0.487759      0.487927       0.76221      0.805603
         0.41      0.487759      0.487759      0.488044      0.764142      0.806916
         0.42      0.487759      0.487759      0.488204      0.766021      0.808185
         0.43      0.487759      0.487759      0.488393       0.76783      0.809401
         0.44      0.487759      0.487759      0.488585      0.769565      0.810562
         0.45      0.487759      0.487759      0.488748       0.77123      0.811682
         0.46      0.487759      0.487759      0.488979      0.772839      0.812781
         0.47      0.487759      0.487759      0.489546      0.774401      0.813875
         0.48      0.487759      0.487759      0.490422      0.775933      0.814981
         0.49      0.487759      0.487759      0.491638      0.777446      0.816109
          0.5      0.487759      0.487759      0.493028      0.778942      0.817246
         0.51      0.487759      0.487759       0.49439      0.780417      0.818375
         0.52      0.487759      0.487759       0.49554      0.781862      0.819484
         0.53      0.487759      0.487759      0.496359      0.783273      0.820564
         0.54      0.487759      0.487759      0.496921      0.784654      0.821613
         0.55      0.487759      0.487759      0.497213      0.786013      0.822636
         0.56      0.487759      0.487759      0.497421      0.787353      0.823643
         0.57      0.487759      0.487759      0.498137       0.78867      0.824644
         0.58      0.487759      0.487759      0.499693      0.789962      0.825653
         0.59      0.487759      0.487759      0.500562      0.791227      0.826671
          0.6      0.487759      0.487759      0.500657      0.792462      0.827694
         0.61      0.487759      0.487759      0.500771      0.793681      0.828717
         0.62      0.487759      0.487759      0.500978      0.794893      0.829736
         0.63      0.487759      0.487759      0.501077      0.796104      0.830748
         0.64      0.487759      0.487759      0.501228      0.797309      0.831759
         0.65      0.487759      0.487759      0.501825      0.798503      0.832773
         0.66      0.487759      0.487759      0.502094      0.799684      0.833787
         0.67      0.487759      0.487759      0.502772      0.800853      0.834799
         0.68      0.487759      0.487759      0.504101      0.802008       0.83581
         0.69      0.487759      0.487759      0.505351      0.803148      0.836818
          0.7      0.487759      0.487759      0.507531      0.804277      0.837825
         0.71      0.487759      0.487759      0.510282      0.805393       0.83884
         0.72      0.487759      0.487759      0.513586      0.806501       0.83987
         0.73      0.487759      0.487759      0.517467      0.807613      0.840916
         0.74      0.487759       0.48776      0.521951      0.808803      0.841975
         0.75      0.487759       0.48776      0.527035      0.809996       0.84304
         0.76      0.487759      0.487761      0.532227      0.810811      0.844114
         0.77      0.487759      0.487762      0.537533      0.811584      0.845242
         0.78      0.487759      0.487765       0.54282      0.812289      0.846672
         0.79      0.487759      0.487769      0.548131      0.812869      0.848366
          0.8      0.487759      0.487775      0.553583      0.813412      0.848848
         0.81      0.487759      0.487784      0.558403      0.813967       0.84959
         0.82      0.487759      0.487799      0.563145      0.814511      0.850086
         0.83      0.487759      0.487819      0.567741      0.815047      0.850611
         0.84      0.487759      0.487848      0.572199      0.815675      0.851129
         0.85      0.487759      0.487886      0.576407      0.816205      0.851739
         0.86      0.487759      0.487937      0.580374       0.81672      0.852554
         0.87      0.487759      0.488002      0.584492      0.817275      0.853088
         0.88      0.487759       0.48808      0.588285      0.817676      0.853714
         0.89      0.487759      0.488171      0.592025      0.818049      0.854254
          0.9      0.487759      0.488273      0.595657      0.818466      0.854913
         0.91      0.487759      0.488379      0.599043      0.818934      0.855237
         0.92      0.487759      0.488486      0.602477      0.819241      0.855796
         0.93      0.487759      0.488586       0.60568      0.819699       0.85628
         0.94      0.487759      0.488674      0.608636      0.820149      0.856803
         0.95      0.487759      0.488746      0.611876      0.820522      0.857126
         0.96      0.487759      0.488801      0.614683      0.820891      0.857571
         0.97      0.487759      0.488841      0.617317       0.82134      0.857883
         0.98      0.487759      0.488875      0.620087      0.821636      0.858518
         0.99      0.487759       0.48909      0.622633      0.822132      0.858762
            1      0.487759      0.489386      0.624948      0.822564      0.859189
         1.01      0.487759      0.489841      0.627413       0.82305      0.859599
         1.02      0.487759      0.490377      0.629685      0.823335      0.859887
         1.03      0.487759       0.49101      0.631739      0.823627      0.860229
         1.04      0.487759      0.491714      0.633936      0.824117      0.860603
         1.05      0.487759      0.492464      0.636077      0.824508      0.860823
         1.06      0.487759       0.49323      0.637911      0.824878      0.860996
         1.07      0.487759      0.494021      0.639684      0.825278      0.861551
         1.08      0.487759      0.494711      0.641606      0.825885      0.861746
         1.09      0.487759      0.495322      0.643416      0.826161      0.862065
          1.1      0.487759        0.4958      0.645227      0.826687      0.862221
         1.11      0.487759      0.496231      0.646795      0.826945      0.862794
         1.12      0.487759      0.496542      0.648366      0.827334      0.862833
         1.13      0.487759      0.496765      0.649995      0.827651      0.863319
         1.14      0.487759      0.496993      0.651585      0.828172      0.863344
         1.15      0.487759      0.497151      0.653062      0.828462      0.863811
         1.16      0.487759      0.497248      0.654441      0.828775       0.86405
         1.17      0.487759      0.497312      0.655935      0.829219      0.864437
         1.18      0.487759      0.497358      0.657291      0.829642      0.864632
         1.19      0.487759      0.497392      0.658567      0.829855      0.864902
          1.2      0.487759      0.497418      0.659913      0.830396      0.865087
         1.21      0.487759      0.497438      0.661185      0.830691      0.865415
         1.22      0.487759      0.497501      0.662488      0.830955       0.86546
         1.23      0.487759      0.497546      0.663656      0.831284      0.865953
         1.24      0.487759      0.498221        0.6649      0.831615      0.866056
         1.25      0.487759      0.499025      0.666144      0.832007      0.866217
         1.26      0.487759      0.499902      0.667197      0.832499      0.866468
         1.27      0.487759      0.500146      0.668333      0.832725      0.866609
         1.28      0.487759      0.500142      0.669373      0.832981       0.86694
         1.29      0.487759      0.500124      0.670509      0.833401       0.86743
          1.3      0.487759       0.50011      0.671496      0.833553      0.867563
         1.31      0.487759      0.500089      0.672567      0.833983      0.867646
         1.32      0.487759      0.500085      0.673531      0.834231      0.868104
         1.33      0.487759      0.500083      0.674501      0.834492      0.868123
         1.34      0.487759       0.50009       0.67553      0.834765      0.868627
         1.35      0.487759      0.500111      0.676357      0.835111      0.868848
         1.36      0.487759      0.500148      0.677327      0.835358      0.869052
         1.37      0.487759       0.50019      0.678181      0.835633      0.869269
         1.38      0.487759      0.500254       0.67905      0.835989      0.869521
         1.39      0.487759      0.500328      0.679956      0.836247      0.869778
          1.4      0.487759      0.500354      0.680702      0.836625      0.869777
         1.41      0.487759      0.500381      0.681609      0.836891      0.869992
         1.42      0.487759      0.500414      0.682476      0.837199      0.870186
         1.43      0.487759      0.500449      0.683186      0.837519      0.870521
         1.44      0.487759      0.500486      0.684014      0.837693       0.87081
         1.45      0.487759      0.500526       0.68471      0.838021      0.871023
         1.46      0.487759      0.500575       0.68551        0.8383      0.871206
         1.47      0.487759      0.500635        0.6862      0.838447      0.871491
         1.48      0.487759      0.500706      0.686946      0.838832      0.871693
         1.49      0.487759      0.501203      0.687616      0.838956       0.87186
          1.5      0.487759      0.501819      0.688338      0.839327      0.871904
         1.51      0.487759      0.501986      0.688953      0.839435      0.872375
         1.52      0.487759      0.502296      0.689678      0.839853      0.872363
         1.53      0.487759      0.503023      0.690274      0.839953      0.872684
         1.54      0.487759      0.503891      0.690884      0.840381      0.872782
         1.55      0.487759      0.504396      0.691553      0.840469      0.873142
         1.56      0.487759       0.50538      0.692125      0.840885      0.873261
         1.57      0.487759      0.506485      0.692693      0.840997      0.873613
         1.58      0.487759      0.507954      0.693343      0.841403      0.873616
         1.59      0.487759      0.509519      0.693942      0.841513      0.873893
          1.6      0.487759       0.51099      0.694487      0.841895      0.873986
         1.61      0.487759      0.512992      0.695045      0.842041      0.874367
         1.62      0.487759      0.514548      0.695584       0.84227       0.87443
         1.63      0.487759      0.516928      0.696226      0.842608      0.874644
         1.64      0.487759      0.519282      0.696839      0.842681      0.874951
         1.65      0.487759      0.521649      0.697388      0.843082      0.875043
         1.66      0.487759      0.523943      0.697946      0.843151      0.875374
         1.67      0.487759      0.526437      0.698506      0.843479      0.875263
         1.68      0.487759      0.529071      0.699066      0.843665      0.875696
         1.69      0.487759       0.53174      0.699626      0.843852      0.875682
          1.7      0.487759       0.53449      0.700186      0.844215      0.876026
         1.71       0.48776      0.536928      0.700723      0.844286      0.876249
         1.72       0.48776      0.539434      0.701247      0.844521      0.876346
         1.73       0.48776      0.541904       0.70178      0.844911      0.876675
         1.74      0.487761      0.544306       0.70233      0.845131      0.876586
         1.75      0.487761      0.546667      0.702828      0.845238      0.876845
         1.76      0.487762      0.548992      0.703313      0.845511      0.877163
         1.77      0.487763      0.551194      0.703785      0.845883       0.87736
         1.78      0.487765      0.553579      0.704301      0.845953       0.87732
         1.79      0.487767      0.555885      0.704779      0.846199      0.877618
          1.8       0.48777      0.558126      0.705232      0.846527      0.877928
         1.81      0.487774      0.560412      0.705679      0.846575      0.877919
         1.82      0.487778      0.562429      0.706114      0.846824      0.878195
         1.83      0.487785      0.564445      0.706546      0.847143       0.87849
         1.84      0.487793      0.566432      0.706971      0.847202      0.878474
         1.85      0.487803      0.568398      0.707378      0.847344      0.878795
         1.86      0.487815      0.570307      0.707821      0.847728      0.879046
         1.87      0.487831      0.572188      0.708296      0.847849      0.878999
         1.88      0.487851      0.574015      0.708697      0.847995      0.879216
         1.89      0.487874       0.57581      0.709099      0.848364      0.879557
          1.9      0.487903      0.577579      0.709499      0.848481       0.87955
         1.91      0.487937      0.579318      0.709898      0.848615      0.879666
         1.92      0.487977      0.581003      0.710297      0.848982      0.880037
         1.93      0.488024       0.58268      0.710699      0.849136      0.880053
         1.94      0.488079      0.584273      0.711101      0.849239      0.880154
         1.95      0.488141      0.585833        0.7115      0.849571      0.880504
         1.96      0.488212      0.587366      0.711895      0.849803      0.880614
         1.97      0.488291      0.588854      0.712267      0.849865      0.880608
         1.98      0.488378      0.590339      0.712689      0.850089      0.880987
         1.99      0.488473      0.591838       0.71308      0.850423      0.881192
            2      0.488575      0.593044      0.713459      0.850466      0.881126
         2.01      0.488683      0.594315      0.713845      0.850623      0.881398
         2.02      0.488797      0.595652      0.714218       0.85092      0.881676
         2.03      0.488962      0.596984      0.714589      0.851224      0.881602
         2.04      0.489077      0.598291      0.714956      0.851312       0.88179
         2.05      0.489191      0.599526       0.71531       0.85145      0.882099
         2.06      0.489301      0.600754      0.715674       0.85168      0.882317
         2.07      0.489405      0.601755      0.716035      0.852017      0.882318
         2.08      0.489503      0.602845      0.716386      0.852288      0.882327
         2.09       0.48965      0.603999      0.716708      0.852376      0.882629
          2.1      0.489744      0.605111      0.717081      0.852511        0.8829
         2.11      0.489827      0.606028      0.717435       0.85267      0.883097
         2.12      0.489903      0.607036      0.717789      0.852985      0.883102
         2.13      0.489969      0.608093      0.718143      0.853218       0.88315
         2.14      0.490031      0.609033      0.718495      0.853371       0.88335
         2.15      0.490088      0.609908      0.718846       0.85345      0.883691
         2.16      0.490139      0.610916      0.719195       0.85355      0.883906
         2.17      0.490187      0.611912      0.719544      0.853703      0.884015
         2.18      0.490283      0.612621      0.719891      0.853983      0.884006
         2.19       0.49033      0.613565      0.720234      0.854155      0.884125
          2.2      0.490386      0.614407      0.720572      0.854233      0.884411
         2.21      0.490461      0.615185      0.720905      0.854283      0.884656
         2.22      0.490565       0.61608      0.721238      0.854387      0.884848
         2.23      0.490701       0.61677      0.721568      0.854606      0.884864
         2.24      0.490914      0.617638      0.721893      0.854835      0.884843
         2.25      0.491131      0.618549      0.722236      0.855072      0.885038
         2.26      0.491457      0.619165      0.722524      0.855242       0.88525
         2.27      0.491795      0.620027      0.722831      0.855351      0.885418
         2.28      0.492254      0.620669      0.723143      0.855491      0.885588
         2.29      0.492786      0.621527       0.72346      0.855668      0.885705
          2.3      0.493388      0.622167        0.7238      0.855878      0.885654
         2.31      0.494055      0.623054       0.72412      0.856164      0.885658
         2.32      0.494777      0.623659      0.724459      0.856396      0.885741
         2.33      0.495542      0.624346      0.724787      0.856627         0.886
         2.34      0.496338      0.625129      0.725126      0.856861      0.886197
         2.35      0.497198      0.625775      0.725482      0.857088      0.886331
         2.36      0.498709      0.626618      0.725839      0.857319      0.886509
         2.37      0.500356      0.627251      0.726185      0.857526      0.886675
         2.38      0.501628       0.62789      0.726538      0.857706      0.886861
         2.39      0.502864      0.628668      0.726845      0.857901      0.887042
          2.4      0.504038      0.629275      0.727189      0.858068       0.88724
         2.41      0.505194      0.630071      0.727517      0.858241      0.887407
         2.42      0.506024      0.630653      0.727844      0.858385       0.88758
         2.43      0.506955       0.63124      0.728178      0.858529      0.887743
         2.44      0.508011      0.632011      0.728479      0.858617        0.8879
         2.45      0.509041      0.632594      0.728839      0.858742       0.88806
         2.46      0.509985      0.633096      0.729158      0.858909      0.888182
         2.47      0.510514       0.63388      0.729475      0.859054      0.888242
         2.48      0.511431      0.634446      0.729795      0.859214      0.888352
         2.49      0.512283      0.634943       0.73007       0.85935      0.888523
          2.5      0.512748      0.635629      0.730344      0.859462      0.888672
         2.51      0.513578      0.636114      0.730658      0.859593      0.888836
         2.52      0.514173       0.63656      0.730946      0.859723      0.888938
         2.53      0.514732      0.637243       0.73127      0.859863       0.88902
         2.54      0.515225      0.637688      0.731575      0.860015      0.889102
         2.55      0.515807      0.638133       0.73189      0.860194      0.889176
         2.56      0.516113      0.638729      0.732152      0.860365      0.889297
         2.57      0.516769      0.639125      0.732423      0.860541      0.889388
         2.58      0.517078      0.639518      0.732725      0.860757      0.889565
         2.59       0.51734      0.639914      0.732959      0.860732      0.889719
          2.6      0.517952      0.640469      0.733243      0.860927      0.889869
         2.61      0.518205      0.640828      0.733503      0.861092      0.890108
         2.62      0.518416      0.641184      0.733796      0.861228      0.890082
         2.63      0.518953      0.641547      0.734076      0.861369      0.890125
         2.64      0.519122      0.642065      0.734339      0.861515      0.890359
         2.65      0.519304      0.642323      0.734555      0.861801      0.890369
         2.66      0.519457      0.642766      0.734851      0.861739      0.890587
         2.67      0.519601      0.643091      0.735126      0.861958      0.890565
         2.68       0.52011      0.643432       0.73541      0.862293       0.89091
         2.69      0.520226      0.643749      0.735654      0.862286      0.890751
          2.7       0.52038      0.644173      0.735918      0.862352      0.890924
         2.71       0.52049      0.644526      0.736202      0.862593      0.891284
         2.72      0.520595      0.644781       0.73642      0.862887      0.891257
         2.73      0.520698      0.645182      0.736733      0.862973       0.89118
         2.74      0.521154      0.645501      0.736976      0.862931      0.891448
         2.75      0.521245       0.64583      0.737205      0.863096      0.891759
         2.76      0.521332      0.646232      0.737498      0.863295      0.891799
         2.77      0.521457      0.646477      0.737745      0.863539      0.891759
         2.78      0.521544      0.646864      0.738008      0.863721      0.891789
         2.79      0.521636      0.647116      0.738287      0.863773      0.891984
          2.8      0.522088      0.647509      0.738529       0.86376      0.892324
         2.81      0.522177      0.647867      0.738778      0.863914      0.892455
         2.82      0.522312      0.648166       0.73909      0.864074      0.892487
         2.83      0.522415      0.648566       0.73931      0.864312      0.892417
         2.84      0.522527      0.648828       0.73954      0.864477      0.892507
         2.85      0.522997       0.64923      0.739807      0.864416      0.892679
         2.86      0.523154      0.649496      0.740117      0.864682       0.89297
         2.87       0.52328      0.649903      0.740383      0.864785      0.893064
         2.88      0.523802      0.650173      0.740601       0.86479      0.892928
         2.89      0.523933      0.650582      0.740911      0.864978      0.893286
          2.9      0.524106      0.650853      0.741157      0.865287      0.893241
         2.91      0.524248       0.65126      0.741429      0.865321      0.893298
         2.92      0.524751      0.651532      0.741664      0.865378      0.893594
         2.93      0.524892      0.651941      0.741933      0.865418      0.893568
         2.94      0.525067      0.652216      0.742222      0.865762      0.893525
         2.95      0.525202      0.652628      0.742525      0.865942      0.893846
         2.96      0.525689      0.652906       0.74277      0.865982      0.894032
         2.97      0.525815      0.653319      0.743036      0.866043      0.894247
         2.98      0.525937      0.653597      0.743364      0.866183      0.894181
         2.99      0.526088       0.65401      0.743612      0.866486      0.894105
            3        0.5262       0.65429      0.743847      0.866729      0.894133
         3.01      0.526341      0.654704       0.74412      0.866774      0.894378
         3.02      0.526759      0.654987      0.744405      0.866823      0.894567
         3.03      0.526855      0.655402      0.744643      0.866872      0.894466
         3.04      0.526945      0.655685      0.744876      0.867175      0.894513
         3.05      0.527064      0.656123       0.74519      0.867431      0.894902
         3.06      0.527145      0.656385       0.74539      0.867424      0.894773
         3.07      0.527229      0.656669      0.745611      0.867546      0.895025
         3.08      0.527664      0.657085      0.745908      0.867607      0.895139
         3.09      0.527738       0.65737      0.746128      0.867733      0.895312
          3.1      0.527808      0.657786      0.746336      0.868045      0.895521
         3.11      0.527874      0.658074      0.746639      0.868115       0.89545
         3.12      0.527936      0.658486      0.746845      0.868238      0.895623
         3.13      0.528038      0.658779      0.747039      0.868301      0.895675
         3.14      0.528122      0.659065      0.747304      0.868559      0.895773
         3.15       0.52819       0.65948      0.747511      0.868635      0.895858
         3.16      0.528235      0.659764      0.747713      0.868601      0.896095
         3.17      0.528259      0.660175       0.74794      0.868655      0.896069
         3.18      0.528287      0.660458      0.748192      0.868888       0.89644
         3.19      0.528307      0.660799       0.74838      0.869051      0.896572
          3.2      0.528314      0.661147      0.748574       0.86918      0.896416
         3.21      0.528311      0.661427      0.748852      0.869262      0.896545
         3.22      0.528308      0.661829      0.749055      0.869311      0.896491
         3.23      0.528307      0.662106      0.749246      0.869449      0.896746
         3.24      0.528314      0.662498      0.749457      0.869484      0.896863
         3.25      0.528328      0.662776      0.749715      0.869635      0.896838
         3.26      0.528345      0.663047      0.749903      0.869936      0.896925
         3.27      0.528423      0.663439      0.750087      0.870029      0.897058
         3.28      0.528735      0.663707      0.750306      0.870111      0.897364
         3.29      0.528778      0.664094      0.750564      0.870266      0.897315
          3.3      0.528885      0.664358      0.750754      0.870406      0.897393
         3.31      0.528971      0.664679      0.750946      0.870587      0.897511
         3.32      0.529059      0.665001      0.751233      0.870737       0.89781
         3.33       0.52949      0.665261       0.75142      0.870605      0.897794
         3.34      0.529568      0.665638      0.751609      0.870811       0.89784
         3.35      0.529694      0.665896      0.751801      0.870861      0.898002
         3.36      0.529794      0.666271      0.752084       0.87123      0.898144
         3.37      0.529964      0.666527      0.752272      0.871108      0.898051
         3.38       0.53037      0.666918      0.752476      0.871155      0.898394
         3.39      0.530535      0.667154      0.752673       0.87124      0.898525
          3.4      0.530676      0.667407      0.752904      0.871368      0.898495
         3.41      0.531177      0.667777      0.753138       0.87146      0.898433
         3.42      0.531379      0.668031      0.753329      0.871573      0.898583
         3.43      0.531937      0.668401       0.75352      0.871695      0.898703
         3.44      0.532164      0.668658      0.753709      0.872013      0.898669
         3.45      0.532371      0.669029       0.75397      0.872124      0.898856
         3.46      0.532939      0.669284      0.754177      0.872255      0.898882
         3.47      0.533209      0.669654       0.75437      0.872241      0.898998
         3.48      0.533869      0.669913      0.754559      0.872293       0.89898
         3.49      0.534136      0.670203      0.754765      0.872419      0.899064
          3.5      0.534831      0.670551      0.755015      0.872566      0.899169
         3.51      0.535511      0.670818      0.755196      0.872656      0.899287
         3.52      0.535869      0.671195      0.755381      0.872733      0.899543
         3.53      0.536626      0.671466      0.755593      0.872875      0.899677