# Probe 0 (1 0 0)
# Probe 1 (140 0 0)
# Probe 2 (200 0 0)
# Probe 3 (249.6 0 0)
# Probe 4 (255 0 0)
#       Probe             0             1             2             3             4
#        Time
            0   3.59583e+06   3.59583e+06   3.59583e+06   3.59583e+06   3.59583e+06
         0.01   3.56295e+06   3.56295e+06   3.56295e+06   3.56295e+06   2.79516e+06
         0.02   3.56295e+06   3.56295e+06   3.56295e+06   3.56295e+06   1.92819e+06
         0.03   3.56295e+06   3.56295e+06   3.56295e+06   3.56192e+06   1.65669e+06
         0.04   3.56295e+06   3.56295e+06   3.56295e+06   3.54371e+06   1.53415e+06
         0.05   3.56295e+06   3.56295e+06   3.56295e+06   3.37235e+06   1.47164e+06
         0.06   3.56295e+06   3.56295e+06   3.56295e+06   3.29212e+06   1.43967e+06
         0.07   3.56295e+06   3.56295e+06   3.56295e+06   3.12224e+06   1.43005e+06
         0.08   3.56295e+06   3.56295e+06   3.56295e+06   2.85529e+06     1.436e+06
         0.09   3.56295e+06   3.56295e+06   3.56295e+06   2.63948e+06   1.45128e+06
          0.1   3.56295e+06   3.56295e+06   3.56295e+06   2.48267e+06   1.47054e+06
         0.11   3.56295e+06   3.56295e+06   3.56295e+06   2.36702e+06   1.48996e+06
         0.12   3.56295e+06   3.56295e+06   3.56295e+06   2.27867e+06   1.50733e+06
         0.13   3.56295e+06   3.56295e+06   3.56295e+06   2.20912e+06   1.52196e+06
         0.14   3.56295e+06   3.56295e+06   3.56295e+06   2.15282e+06   1.53376e+06
         0.15   3.56295e+06   3.56295e+06   3.56295e+06   2.10631e+06   1.54287e+06
         0.16   3.56295e+06   3.56295e+06   3.56295e+06   2.06759e+06   1.54979e+06
         0.17   3.56295e+06   3.56295e+06   3.56295e+06   2.03535e+06   1.55491e+06
         0.18   3.56295e+06   3.56295e+06   3.56295e+06   2.00877e+06   1.55853e+06
         0.19   3.56295e+06   3.56295e+06   3.56295e+06   1.98676e+06   1.56093e+06
          0.2   3.56295e+06   3.56295e+06   3.56295e+06   1.96932e+06   1.56245e+06
         0.21   3.56295e+06   3.56295e+06   3.56295e+06   1.95601e+06   1.56346e+06
         0.22   3.56295e+06   3.56295e+06   3.56295e+06   1.94598e+06   1.56416e+06
         0.23   3.56295e+06   3.56295e+06   3.56295e+06   1.93859e+06   1.56456e+06
         0.24   3.56295e+06   3.56295e+06   3.56295e+06   1.93317e+06   1.56473e+06
         0.25   3.56295e+06   3.56295e+06   3.56295e+06   1.92911e+06   1.56471e+06
         0.26   3.56295e+06   3.56295e+06   3.56295e+06   1.92604e+06   1.56456e+06
         0.27   3.56295e+06   3.56295e+06   3.56295e+06   1.92355e+06    1.5643e+06
         0.28   3.56295e+06   3.56295e+06   3.56295e+06    1.9212e+06   1.56394e+06
         0.29   3.56295e+06   3.56295e+06   3.56295e+06   1.91873e+06   1.56354e+06
          0.3   3.56295e+06   3.56295e+06   3.56295e+06   1.91612e+06   1.56318e+06
         0.31   3.56295e+06   3.56295e+06   3.56295e+06   1.91337e+06   1.56286e+06
         0.32   3.56295e+06   3.56295e+06   3.56295e+06   1.91044e+06   1.56249e+06
         0.33   3.56295e+06   3.56295e+06   3.56294e+06    1.9074e+06   1.56206e+06
         0.34   3.56295e+06   3.56295e+06    3.5629e+06   1.90431e+06   1.56163e+06
         0.35   3.56295e+06   3.56295e+06   3.56282e+06   1.90115e+06   1.56122e+06
         0.36   3.56295e+06   3.56295e+06   3.56264e+06   1.89792e+06   1.56082e+06
         0.37   3.56295e+06   3.56295e+06   3.56226e+06   1.89471e+06   1.56045e+06
         0.38   3.56295e+06   3.56295e+06   3.56155e+06   1.89161e+06   1.56011e+06
         0.39   3.56295e+06   3.56295e+06   3.56031e+06   1.88864e+06   1.55975e+06
          0.4   3.56295e+06   3.56295e+06   3.55833e+06   1.88574e+06   1.55936e+06
         0.41   3.56295e+06   3.56295e+06   3.55544e+06    1.8829e+06   1.55898e+06
         0.42   3.56295e+06   3.56295e+06   3.55168e+06   1.88012e+06   1.55864e+06
         0.43   3.56295e+06   3.56295e+06   3.54743e+06   1.87747e+06   1.55835e+06
         0.44   3.56295e+06   3.56295e+06   3.54336e+06   1.87498e+06   1.55805e+06
         0.45   3.56295e+06   3.56295e+06    3.5402e+06   1.87258e+06   1.55775e+06
         0.46   3.56295e+06   3.56295e+06   3.53794e+06   1.87026e+06   1.55746e+06
         0.47   3.56295e+06   3.56295e+06   3.52792e+06   1.86807e+06   1.55723e+06
         0.48   3.56295e+06   3.56295e+06   3.51137e+06   1.86605e+06   1.55706e+06
         0.49   3.56295e+06   3.56295e+06   3.49175e+06   1.86415e+06    1.5569e+06
          0.5   3.56295e+06   3.56295e+06   3.46885e+06   1.86235e+06   1.55677e+06
         0.51   3.56295e+06   3.56295e+06   3.44737e+06   1.86067e+06    1.5567e+06
         0.52   3.56295e+06   3.56295e+06   3.43138e+06    1.8591e+06    1.5567e+06
         0.53   3.56295e+06   3.56295e+06   3.41977e+06   1.85762e+06   1.55675e+06
         0.54   3.56295e+06   3.56295e+06   3.41283e+06   1.85622e+06   1.55683e+06
         0.55   3.56295e+06   3.56295e+06   3.41012e+06   1.85495e+06   1.55695e+06
         0.56   3.56295e+06   3.56295e+06   3.40883e+06    1.8538e+06   1.55709e+06
         0.57   3.56295e+06   3.56295e+06   3.40516e+06   1.85276e+06   1.55724e+06
         0.58   3.56295e+06   3.56295e+06    3.3994e+06   1.85182e+06   1.55743e+06
         0.59   3.56295e+06   3.56295e+06   3.39106e+06   1.85098e+06   1.55768e+06
          0.6   3.56295e+06   3.56295e+06   3.38987e+06   1.85025e+06     1.558e+06
         0.61   3.56295e+06   3.56295e+06   3.39163e+06   1.84962e+06   1.55838e+06
         0.62   3.56295e+06   3.56295e+06    3.3882e+06   1.84908e+06   1.55883e+06
         0.63   3.56295e+06   3.56295e+06   3.38662e+06   1.84864e+06   1.55935e+06
         0.64   3.56295e+06   3.56295e+06   3.38622e+06   1.84833e+06   1.55995e+06
         0.65   3.56295e+06   3.56295e+06   3.38457e+06   1.84813e+06    1.5606e+06
         0.66   3.56295e+06   3.56295e+06    3.3802e+06   1.84805e+06   1.56133e+06
         0.67   3.56295e+06   3.56295e+06   3.37602e+06    1.8481e+06   1.56213e+06
         0.68   3.56295e+06   3.56295e+06   3.37461e+06   1.84829e+06   1.56301e+06
         0.69   3.56295e+06   3.56295e+06   3.36591e+06    1.8486e+06   1.56399e+06
          0.7   3.56295e+06   3.56295e+06   3.35828e+06   1.84903e+06   1.56508e+06
         0.71   3.56295e+06   3.56295e+06    3.3482e+06   1.84958e+06   1.56627e+06
         0.72   3.56295e+06   3.56295e+06   3.33341e+06   1.85027e+06   1.56758e+06
         0.73   3.56295e+06   3.56294e+06   3.31689e+06    1.8511e+06   1.56901e+06
         0.74   3.56295e+06   3.56294e+06   3.29088e+06   1.85057e+06   1.57056e+06
         0.75   3.56295e+06   3.56292e+06   3.27327e+06    1.8409e+06   1.57224e+06
         0.76   3.56295e+06    3.5629e+06   3.25307e+06   1.83435e+06   1.57405e+06
         0.77   3.56295e+06   3.56286e+06   3.23101e+06   1.82981e+06    1.5751e+06
         0.78   3.56295e+06   3.56279e+06   3.20819e+06   1.82657e+06   1.57134e+06
         0.79   3.56295e+06   3.56268e+06   3.19252e+06   1.82691e+06   1.56475e+06
          0.8   3.56295e+06   3.56251e+06   3.17395e+06   1.82325e+06     1.557e+06
         0.81   3.56295e+06   3.56225e+06   3.14748e+06   1.81451e+06   1.55511e+06
         0.82   3.56295e+06   3.56188e+06   3.12747e+06   1.80647e+06   1.55516e+06
         0.83   3.56295e+06   3.56135e+06   3.10852e+06   1.80657e+06   1.54738e+06
         0.84   3.56295e+06   3.56063e+06   3.09071e+06   1.80002e+06   1.54087e+06
         0.85   3.56295e+06   3.55967e+06   3.07785e+06   1.80261e+06   1.53384e+06
         0.86   3.56295e+06   3.55844e+06   3.05363e+06   1.79349e+06   1.53084e+06
         0.87   3.56295e+06   3.55691e+06   3.03831e+06   1.78907e+06   1.52436e+06
         0.88   3.56295e+06   3.55509e+06   3.02666e+06    1.7853e+06   1.52044e+06
         0.89   3.56295e+06   3.55301e+06   3.00609e+06   1.78194e+06   1.51561e+06
          0.9   3.56295e+06   3.55074e+06   2.99694e+06   1.77952e+06   1.51106e+06
         0.91   3.56295e+06    3.5484e+06   2.97586e+06   1.77847e+06   1.50677e+06
         0.92   3.56295e+06   3.54612e+06   2.96777e+06   1.78149e+06   1.50268e+06
         0.93   3.56295e+06   3.54404e+06   2.94846e+06   1.77111e+06   1.49923e+06
         0.94   3.56295e+06   3.54226e+06   2.93572e+06   1.77332e+06   1.49584e+06
         0.95   3.56295e+06   3.54085e+06   2.92786e+06   1.76551e+06   1.49172e+06
         0.96   3.56295e+06   3.53982e+06   2.90978e+06   1.76908e+06   1.48876e+06
         0.97   3.56295e+06   3.53918e+06   2.89721e+06   1.76084e+06   1.48567e+06
         0.98   3.56295e+06   3.53807e+06   2.89047e+06   1.75795e+06   1.47993e+06
         0.99   3.56295e+06    3.5362e+06   2.87427e+06   1.75371e+06   1.48646e+06
            1   3.56295e+06   3.52903e+06   2.86265e+06   1.75081e+06   1.47568e+06
         1.01   3.56295e+06    3.5227e+06   2.85673e+06   1.75124e+06   1.47361e+06
         1.02   3.56295e+06    3.5147e+06   2.84169e+06   1.75367e+06   1.47766e+06
         1.03   3.56295e+06    3.5046e+06   2.83108e+06   1.75078e+06   1.47193e+06
         1.04   3.56295e+06     3.493e+06   2.82516e+06   1.74098e+06   1.46473e+06
         1.05   3.56295e+06    3.4805e+06   2.81541e+06   1.73557e+06   1.46346e+06
         1.06   3.56295e+06   3.46791e+06   2.80153e+06   1.73418e+06    1.4709e+06
         1.07   3.56295e+06   3.45895e+06   2.79308e+06   1.73809e+06   1.45916e+06
         1.08   3.56295e+06   3.44826e+06    2.7871e+06   1.73094e+06   1.45441e+06
         1.09   3.56295e+06   3.43957e+06   2.77816e+06   1.72496e+06    1.4526e+06
          1.1   3.56295e+06   3.42989e+06   2.76908e+06   1.72295e+06   1.45045e+06
         1.11   3.56295e+06   3.42514e+06   2.75834e+06   1.72677e+06   1.44594e+06
         1.12   3.56295e+06   3.42024e+06   2.75028e+06    1.7162e+06   1.44636e+06
         1.13   3.56295e+06   3.41969e+06   2.74609e+06   1.72158e+06   1.44403e+06
         1.14   3.56295e+06   3.41455e+06   2.73823e+06   1.71721e+06   1.44593e+06
         1.15   3.56295e+06   3.41261e+06   2.72786e+06   1.70757e+06   1.43804e+06
         1.16   3.56295e+06   3.41168e+06   2.72312e+06    1.7067e+06   1.44606e+06
         1.17   3.56295e+06   3.41099e+06   2.71651e+06   1.71161e+06   1.43606e+06
         1.18   3.56295e+06   3.41043e+06   2.70699e+06   1.69929e+06   1.43626e+06
         1.19   3.56295e+06   3.41002e+06   2.70285e+06   1.70078e+06   1.43121e+06
          1.2   3.56295e+06   3.40974e+06   2.69381e+06   1.70174e+06   1.43693e+06
         1.21   3.56295e+06   3.40938e+06   2.68999e+06    1.6916e+06   1.42578e+06
         1.22   3.56295e+06    3.4107e+06   2.68395e+06   1.69765e+06   1.42837e+06
         1.23   3.56295e+06   3.40155e+06   2.67763e+06   1.69083e+06   1.42456e+06
         1.24   3.56295e+06   3.40603e+06   2.67164e+06   1.68798e+06   1.41892e+06
         1.25   3.56295e+06   3.40133e+06   2.66699e+06   1.69171e+06   1.42785e+06
         1.26   3.56295e+06   3.39514e+06    2.6601e+06   1.68238e+06   1.42397e+06
         1.27   3.56295e+06   3.39359e+06   2.65258e+06   1.67677e+06   1.42358e+06
         1.28   3.56295e+06   3.39221e+06   2.64688e+06   1.68435e+06   1.42498e+06
         1.29   3.56295e+06   3.39373e+06   2.64196e+06   1.67333e+06   1.40967e+06
          1.3   3.56295e+06   3.39324e+06   2.63823e+06    1.6797e+06   1.40678e+06
         1.31   3.56295e+06   3.39348e+06   2.63393e+06   1.66887e+06   1.41784e+06
         1.32   3.56295e+06   3.39335e+06   2.62632e+06   1.66655e+06   1.40382e+06
         1.33   3.56295e+06   3.39355e+06   2.62372e+06   1.66372e+06   1.40743e+06
         1.34   3.56295e+06   3.39331e+06   2.61863e+06   1.66148e+06   1.40077e+06
         1.35   3.56295e+06   3.39316e+06   2.61403e+06   1.66043e+06   1.39745e+06
         1.36   3.56295e+06   3.39308e+06   2.61058e+06   1.66637e+06    1.3955e+06
         1.37   3.56295e+06   3.39305e+06   2.60313e+06   1.65634e+06   1.39376e+06
         1.38   3.56295e+06    3.3928e+06   2.60065e+06   1.66163e+06   1.39229e+06
         1.39   3.56295e+06   3.39268e+06   2.59718e+06   1.65259e+06   1.39483e+06
          1.4   3.56295e+06   3.39258e+06   2.59009e+06   1.65711e+06   1.39478e+06
         1.41   3.56295e+06   3.39207e+06   2.58826e+06   1.64791e+06   1.39642e+06
         1.42   3.56295e+06    3.3916e+06   2.58357e+06   1.65393e+06   1.39572e+06
         1.43   3.56295e+06   3.39128e+06   2.57942e+06   1.64362e+06   1.39288e+06
         1.44   3.56295e+06   3.39078e+06   2.57649e+06   1.65013e+06   1.38311e+06
         1.45   3.56295e+06   3.39062e+06   2.57136e+06   1.63916e+06   1.38082e+06
         1.46   3.56295e+06   3.39029e+06   2.56862e+06   1.64511e+06    1.3836e+06
         1.47   3.56295e+06   3.38998e+06   2.56227e+06   1.63781e+06   1.37798e+06
         1.48   3.56295e+06   3.38934e+06   2.56099e+06   1.63981e+06   1.37537e+06
         1.49   3.56295e+06   3.38835e+06   2.55493e+06   1.63413e+06   1.37604e+06
          1.5   3.56295e+06   3.38567e+06   2.55389e+06   1.63589e+06   1.37877e+06
         1.51   3.56295e+06   3.38458e+06   2.54925e+06   1.63222e+06   1.37269e+06
         1.52   3.56295e+06    3.3809e+06   2.54728e+06   1.63133e+06   1.37939e+06
         1.53   3.56295e+06   3.38048e+06   2.54296e+06   1.62841e+06   1.37019e+06
         1.54   3.56295e+06   3.38004e+06   2.53754e+06   1.62525e+06   1.37442e+06
         1.55   3.56295e+06   3.37287e+06   2.53703e+06   1.62711e+06   1.37246e+06
         1.56   3.56295e+06    3.3698e+06   2.53305e+06   1.62026e+06     1.371e+06
         1.57   3.56295e+06   3.36515e+06   2.52914e+06    1.6243e+06   1.36419e+06
         1.58   3.56295e+06   3.35576e+06   2.52487e+06   1.61594e+06   1.36655e+06
         1.59   3.56295e+06   3.35727e+06   2.52411e+06   1.62121e+06   1.35554e+06
          1.6   3.56295e+06   3.34938e+06   2.52035e+06   1.61151e+06   1.36335e+06
         1.61   3.56295e+06   3.34426e+06   2.51697e+06   1.61861e+06   1.35039e+06
         1.62   3.56295e+06   3.32963e+06   2.51242e+06   1.60939e+06    1.3629e+06
         1.63   3.56295e+06    3.3275e+06   2.50952e+06   1.61208e+06   1.35145e+06
         1.64   3.56295e+06   3.31863e+06   2.50925e+06   1.61017e+06   1.35558e+06
         1.65   3.56295e+06   3.30385e+06    2.5059e+06   1.60417e+06    1.3456e+06
         1.66   3.56295e+06   3.29232e+06   2.50291e+06   1.60922e+06   1.34892e+06
         1.67   3.56295e+06   3.28206e+06   2.50004e+06   1.59858e+06    1.3506e+06
         1.68   3.56295e+06   3.27241e+06   2.49722e+06   1.60627e+06   1.34304e+06
         1.69   3.56295e+06   3.26303e+06   2.49445e+06   1.59707e+06   1.35187e+06
          1.7   3.56294e+06   3.25927e+06   2.49172e+06   1.59912e+06   1.33855e+06
         1.71   3.56294e+06   3.24818e+06   2.48878e+06   1.60072e+06   1.34618e+06
         1.72   3.56293e+06   3.23895e+06    2.4861e+06   1.59394e+06   1.33603e+06
         1.73   3.56292e+06   3.22807e+06   2.48207e+06    1.5887e+06   1.33665e+06
         1.74   3.56291e+06   3.21703e+06   2.48176e+06   1.59482e+06     1.344e+06
         1.75    3.5629e+06   3.20637e+06    2.4788e+06   1.59416e+06   1.33209e+06
         1.76   3.56287e+06   3.19595e+06   2.47596e+06   1.58523e+06   1.32926e+06
         1.77   3.56284e+06   3.18303e+06   2.47306e+06   1.58588e+06   1.33366e+06
         1.78    3.5628e+06    3.1722e+06   2.46951e+06   1.58964e+06   1.33747e+06
         1.79   3.56275e+06   3.16347e+06   2.46922e+06   1.57904e+06   1.32482e+06
          1.8   3.56267e+06   3.15512e+06   2.46651e+06   1.57922e+06   1.32519e+06
         1.81   3.56258e+06   3.14991e+06     2.464e+06   1.58452e+06   1.33397e+06
         1.82   3.56245e+06   3.14391e+06   2.46152e+06   1.57421e+06   1.31991e+06
         1.83   3.56229e+06   3.13513e+06   2.45904e+06   1.57618e+06   1.32053e+06
         1.84   3.56209e+06   3.12655e+06   2.45656e+06   1.58038e+06   1.32878e+06
         1.85   3.56184e+06   3.11828e+06   2.45397e+06   1.57373e+06   1.31524e+06
         1.86   3.56152e+06   3.10985e+06   2.45043e+06   1.56844e+06   1.31634e+06
         1.87   3.56114e+06   3.10333e+06   2.45064e+06   1.57546e+06   1.32518e+06
         1.88   3.56066e+06   3.09504e+06   2.44837e+06   1.57012e+06   1.31257e+06
         1.89   3.56008e+06   3.08705e+06   2.44596e+06   1.56358e+06   1.31082e+06
          1.9   3.55939e+06   3.07945e+06   2.44352e+06   1.57076e+06   1.32102e+06
         1.91   3.55857e+06   3.07222e+06   2.44114e+06   1.56559e+06   1.31103e+06
         1.92   3.55761e+06   3.06501e+06   2.43881e+06   1.55795e+06   1.30628e+06
         1.93   3.55649e+06    3.0585e+06   2.43649e+06   1.56561e+06   1.31629e+06
         1.94   3.55521e+06   3.05162e+06   2.43421e+06   1.56181e+06   1.30561e+06
         1.95   3.55375e+06   3.04502e+06   2.43197e+06   1.55334e+06   1.30117e+06
         1.96   3.55211e+06   3.03872e+06   2.42976e+06   1.55958e+06   1.30937e+06
         1.97   3.55029e+06   3.03083e+06   2.42655e+06   1.55987e+06   1.30437e+06
         1.98   3.54829e+06   3.02509e+06    2.4244e+06   1.55019e+06     1.297e+06
         1.99   3.54613e+06   3.01936e+06   2.42237e+06   1.54993e+06   1.30143e+06
            2   3.54383e+06   3.00772e+06   2.42031e+06   1.55565e+06   1.30678e+06
         2.01   3.54141e+06   3.00177e+06   2.41835e+06   1.55065e+06   1.29296e+06
         2.02   3.53891e+06   2.99958e+06   2.41631e+06   1.54279e+06    1.2934e+06
         2.03    3.5396e+06   2.99493e+06    2.4143e+06   1.54408e+06   1.30324e+06
         2.04   3.53711e+06   2.99037e+06    2.4123e+06   1.54984e+06   1.29249e+06
         2.05   3.53466e+06   2.98398e+06   2.41024e+06   1.54727e+06   1.28683e+06
         2.06    3.5323e+06   2.97953e+06   2.40825e+06   1.53948e+06   1.28863e+06
         2.07   3.53005e+06   2.96906e+06   2.40629e+06   1.53498e+06    1.2978e+06
         2.08   3.52795e+06   2.96772e+06   2.40424e+06    1.5376e+06   1.29371e+06
         2.09   3.52896e+06   2.96426e+06   2.40237e+06   1.54295e+06   1.28246e+06
          2.1   3.52693e+06   2.95914e+06   2.40154e+06   1.54101e+06   1.28075e+06
         2.11   3.52516e+06   2.94963e+06   2.39968e+06    1.5366e+06   1.28193e+06
         2.12   3.52359e+06   2.94894e+06   2.39782e+06   1.52786e+06   1.29135e+06
         2.13   3.52218e+06   2.94448e+06   2.39597e+06   1.52721e+06   1.28992e+06
         2.14   3.52092e+06   2.93621e+06   2.39416e+06   1.53406e+06   1.27955e+06
         2.15   3.51979e+06   2.93494e+06   2.39234e+06   1.53446e+06   1.27376e+06
         2.16   3.51876e+06   2.93087e+06   2.39051e+06   1.53039e+06   1.27384e+06
         2.17   3.51778e+06   2.92559e+06   2.38865e+06   1.52484e+06   1.28174e+06
         2.18   3.51994e+06   2.92196e+06   2.38683e+06   1.51944e+06   1.28432e+06
         2.19   3.51884e+06   2.91814e+06   2.38505e+06   1.51915e+06   1.27587e+06
          2.2   3.51743e+06   2.91062e+06   2.38324e+06   1.52688e+06   1.26816e+06
         2.21   3.51548e+06   2.90994e+06   2.38147e+06   1.52551e+06   1.26631e+06
         2.22   3.51284e+06    2.9063e+06   2.37973e+06   1.52109e+06   1.26605e+06
         2.23   3.50952e+06   2.89863e+06   2.37801e+06   1.51369e+06   1.27659e+06
         2.24   3.50864e+06   2.89935e+06   2.37628e+06   1.51095e+06   1.27522e+06
         2.25   3.50327e+06   2.89589e+06   2.37343e+06    1.5113e+06   1.26445e+06
         2.26   3.49974e+06   2.89147e+06   2.37037e+06   1.51503e+06   1.25977e+06
         2.27   3.49157e+06   2.88863e+06   2.36837e+06   1.51807e+06    1.2588e+06
         2.28   3.48499e+06    2.8843e+06   2.36643e+06   1.51657e+06   1.25899e+06
         2.29   3.47678e+06   2.88176e+06    2.3657e+06   1.51344e+06   1.26062e+06
          2.3   3.46705e+06   2.87774e+06    2.3627e+06   1.50861e+06   1.26903e+06
         2.31   3.45598e+06   2.87526e+06   2.36197e+06   1.50324e+06   1.26764e+06
         2.32    3.4438e+06   2.87168e+06   2.36021e+06    1.5013e+06   1.26131e+06
         2.33   3.43084e+06    2.8642e+06   2.35831e+06   1.49968e+06   1.25312e+06
         2.34   3.41742e+06   2.86439e+06   2.35654e+06   1.49795e+06   1.25044e+06
         2.35   3.40675e+06   2.86092e+06   2.35361e+06   1.49668e+06   1.24916e+06
         2.36    3.3957e+06   2.85908e+06   2.35198e+06   1.49575e+06   1.24795e+06
         2.37   3.39987e+06   2.85579e+06   2.35035e+06   1.49522e+06   1.24677e+06
         2.38   3.39419e+06   2.84889e+06   2.35062e+06   1.49391e+06   1.24605e+06
         2.39   3.38937e+06   2.84929e+06   2.34862e+06   1.49296e+06   1.24528e+06
          2.4    3.3849e+06   2.84609e+06   2.34701e+06   1.49177e+06   1.24457e+06
         2.41   3.38107e+06   2.84438e+06   2.34533e+06   1.49421e+06   1.24362e+06
         2.42   3.36808e+06   2.84007e+06   2.34368e+06   1.49428e+06   1.24248e+06
         2.43   3.36951e+06    2.8372e+06    2.3422e+06   1.49378e+06   1.24173e+06
         2.44   3.36738e+06   2.83565e+06   2.33838e+06   1.49576e+06   1.24351e+06
         2.45   3.36572e+06   2.83298e+06   2.33795e+06   1.49507e+06   1.24213e+06
         2.46   3.36193e+06   2.82703e+06   2.33629e+06   1.49331e+06   1.24456e+06
         2.47   3.35547e+06   2.82742e+06   2.33459e+06   1.49171e+06   1.24842e+06
         2.48   3.35484e+06   2.82458e+06   2.33381e+06   1.49015e+06   1.24845e+06
         2.49   3.35248e+06   2.82086e+06   2.32991e+06   1.48928e+06   1.24579e+06
          2.5   3.34754e+06   2.81946e+06   2.32929e+06   1.48884e+06   1.24433e+06
         2.51    3.3484e+06   2.81552e+06   2.32791e+06   1.48777e+06    1.2415e+06
         2.52   3.33865e+06   2.81146e+06   2.32628e+06   1.48685e+06    1.2415e+06
         2.53   3.34359e+06   2.81191e+06   2.32316e+06    1.4853e+06   1.24205e+06
         2.54   3.33409e+06    2.8083e+06   2.32192e+06    1.4843e+06   1.24199e+06
         2.55   3.34047e+06   2.80627e+06   2.32169e+06   1.48302e+06   1.24147e+06
         2.56   3.33556e+06   2.80529e+06   2.31961e+06    1.4815e+06   1.24042e+06
         2.57   3.33615e+06   2.80188e+06   2.31759e+06   1.47936e+06   1.23933e+06
         2.58   3.33442e+06   2.79863e+06   2.31639e+06    1.4751e+06   1.23742e+06
         2.59   3.33064e+06   2.79681e+06   2.31311e+06   1.46775e+06    1.2355e+06
          2.6   3.33203e+06   2.79591e+06   2.31308e+06   1.47755e+06   1.23264e+06
         2.61   3.33107e+06   2.79262e+06   2.31092e+06   1.46377e+06   1.22213e+06
         2.62   3.32795e+06   2.78958e+06    2.3081e+06   1.47496e+06   1.21826e+06
         2.63   3.32977e+06   2.78797e+06   2.30801e+06   1.46159e+06   1.23309e+06
         2.64   3.32696e+06   2.78728e+06   2.30619e+06   1.47271e+06   1.21532e+06
         2.65   3.32701e+06   2.78324e+06   2.30359e+06   1.45995e+06   1.23054e+06
         2.66   3.32469e+06   2.78192e+06    2.3034e+06   1.46744e+06   1.21348e+06
         2.67   3.32264e+06   2.77916e+06   2.30141e+06   1.46884e+06   1.22927e+06
         2.68   3.32536e+06   2.77793e+06   2.29865e+06   1.45923e+06   1.21219e+06
         2.69   3.32357e+06   2.77521e+06    2.2983e+06   1.45491e+06    1.2172e+06
          2.7   3.32456e+06   2.77381e+06   2.29724e+06   1.46405e+06   1.22619e+06
         2.71   3.32289e+06   2.76931e+06   2.29608e+06   1.46426e+06   1.21131e+06
         2.72   3.32098e+06   2.76925e+06   2.29349e+06   1.45494e+06    1.2079e+06
         2.73   3.31904e+06   2.76819e+06   2.29094e+06   1.44969e+06    1.2207e+06
         2.74   3.32204e+06   2.76308e+06   2.29114e+06   1.45472e+06    1.2209e+06
         2.75    3.3206e+06   2.76375e+06    2.2894e+06   1.45842e+06   1.20687e+06
         2.76   3.31913e+06   2.76286e+06   2.28796e+06   1.45861e+06   1.20347e+06
         2.77   3.32016e+06   2.75953e+06   2.28612e+06     1.455e+06   1.20563e+06
         2.78     3.318e+06   2.75887e+06   2.28483e+06   1.44557e+06    1.2163e+06
         2.79   3.31578e+06   2.75558e+06   2.28358e+06   1.44294e+06   1.21656e+06
          2.8   3.31841e+06   2.75495e+06   2.28161e+06   1.45031e+06   1.20688e+06
         2.81   3.31639e+06   2.75074e+06   2.28064e+06   1.45179e+06   1.19915e+06
         2.82   3.31655e+06   2.75107e+06   2.27932e+06   1.45184e+06   1.19754e+06
         2.83   3.31376e+06   2.75048e+06    2.2775e+06   1.44897e+06   1.20241e+06
         2.84   3.31097e+06   2.74732e+06   2.27595e+06   1.43772e+06   1.21067e+06
         2.85   3.31286e+06   2.74675e+06   2.27304e+06   1.44829e+06   1.21064e+06
         2.86   3.31257e+06   2.74362e+06   2.27141e+06   1.43474e+06   1.20325e+06
         2.87    3.3094e+06   2.74307e+06   2.27179e+06   1.44676e+06   1.19229e+06
         2.88   3.31115e+06   2.73997e+06   2.27017e+06   1.44467e+06   1.20748e+06
         2.89    3.3084e+06   2.73949e+06     2.269e+06   1.43298e+06   1.19019e+06
          2.9   3.30786e+06   2.73647e+06   2.26726e+06   1.43137e+06   1.20544e+06
         2.91    3.3045e+06   2.73607e+06   2.26604e+06   1.44199e+06   1.19248e+06
         2.92   3.30621e+06   2.73312e+06   2.26396e+06     1.441e+06   1.18772e+06
         2.93    3.3037e+06   2.73275e+06   2.26296e+06   1.43733e+06   1.20186e+06
         2.94   3.30384e+06    2.7298e+06   2.26001e+06     1.426e+06   1.20193e+06
         2.95   3.30114e+06   2.72945e+06   2.26036e+06   1.43639e+06   1.18756e+06
         2.96   3.30298e+06   2.72657e+06   2.25851e+06   1.43696e+06   1.18304e+06
         2.97   3.30095e+06   2.72625e+06   2.25726e+06    1.4351e+06   1.18267e+06
         2.98   3.29905e+06   2.72345e+06    2.2545e+06   1.42718e+06   1.18344e+06
         2.99   3.29968e+06   2.72316e+06   2.25457e+06    1.4209e+06   1.18618e+06
            3   3.29749e+06   2.72044e+06   2.25322e+06   1.42452e+06   1.19417e+06
         3.01   3.29101e+06   2.72018e+06   2.25024e+06   1.43223e+06   1.19205e+06
         3.02   3.29828e+06   2.71749e+06    2.2506e+06   1.43017e+06   1.18937e+06
         3.03   3.29669e+06   2.71727e+06   2.24875e+06   1.42438e+06   1.18687e+06
         3.04   3.29547e+06   2.71463e+06   2.24745e+06   1.41588e+06   1.19017e+06
         3.05   3.29667e+06   2.71433e+06    2.2457e+06   1.41941e+06   1.18733e+06
         3.06   3.29482e+06   2.71186e+06   2.24474e+06   1.42571e+06   1.19127e+06
         3.07   3.29287e+06   2.70927e+06   2.24346e+06   1.42635e+06   1.18856e+06
         3.08   3.29577e+06   2.70914e+06   2.24058e+06   1.42372e+06   1.18852e+06
         3.09   3.29485e+06   2.70664e+06   2.24053e+06   1.41368e+06    1.1827e+06
          3.1   3.29355e+06   2.70648e+06   2.23923e+06   1.41787e+06   1.17502e+06
         3.11   3.29257e+06   2.70398e+06   2.23807e+06   1.42049e+06    1.1862e+06
         3.12   3.29174e+06   2.70385e+06   2.23681e+06   1.41871e+06   1.18113e+06
         3.13   3.29285e+06   2.70134e+06   2.23482e+06    1.4164e+06    1.1725e+06
         3.14   3.29105e+06   2.69888e+06   2.23204e+06   1.41011e+06   1.18257e+06
         3.15   3.28954e+06   2.69874e+06   2.23217e+06   1.40496e+06   1.18321e+06
         3.16   3.28865e+06   2.69632e+06   2.23104e+06   1.41492e+06   1.16495e+06
         3.17   3.28828e+06   2.69621e+06   2.22791e+06   1.41258e+06   1.18079e+06
         3.18   3.28862e+06    2.6938e+06   2.22812e+06   1.40471e+06   1.16506e+06
         3.19   3.28924e+06   2.69016e+06   2.22706e+06   1.40382e+06    1.1727e+06
          3.2   3.28981e+06   2.69127e+06   2.22503e+06   1.40984e+06   1.17733e+06
         3.21   3.29022e+06   2.68889e+06   2.22422e+06   1.41071e+06    1.1735e+06
         3.22   3.29019e+06   2.68876e+06   2.22307e+06   1.40764e+06   1.17656e+06
         3.23   3.28962e+06   2.68638e+06   2.22121e+06   1.40114e+06   1.17205e+06
         3.24   3.28912e+06   2.68635e+06   2.21838e+06   1.40671e+06   1.15859e+06
         3.25   3.28874e+06   2.68391e+06   2.21944e+06   1.40634e+06   1.17147e+06
         3.26   3.28834e+06   2.68154e+06   2.21766e+06   1.39573e+06    1.1674e+06
         3.27   3.28367e+06   2.68139e+06   2.21592e+06   1.40349e+06   1.16923e+06
         3.28   3.29094e+06   2.67899e+06   2.21318e+06   1.40167e+06   1.15587e+06
         3.29   3.28858e+06   2.67884e+06   2.21418e+06   1.40323e+06   1.16877e+06
          3.3   3.28854e+06    2.6764e+06   2.21237e+06   1.40231e+06   1.15606e+06
         3.31   3.28613e+06   2.67283e+06   2.21066e+06   1.39899e+06   1.15514e+06
         3.32   3.28468e+06    2.6738e+06   2.20898e+06   1.39356e+06    1.1536e+06
         3.33   3.28783e+06   2.67139e+06   2.20881e+06   1.39654e+06   1.15096e+06
         3.34   3.28589e+06   2.67115e+06   2.20715e+06   1.39983e+06   1.16614e+06
         3.35   3.28596e+06   2.66872e+06   2.20553e+06   1.40069e+06   1.15097e+06
         3.36   3.28302e+06   2.66851e+06     2.204e+06   1.39013e+06   1.14966e+06
         3.37   3.27616e+06   2.66599e+06   2.20384e+06   1.39602e+06   1.16193e+06
         3.38   3.28197e+06   2.66428e+06   2.20221e+06   1.39366e+06    1.1439e+06
         3.39    3.2811e+06   2.66324e+06   2.20062e+06   1.38772e+06    1.1546e+06
          3.4   3.27744e+06    2.6608e+06   2.19797e+06    1.3863e+06   1.15468e+06
         3.41   3.27822e+06   2.66049e+06   2.19911e+06   1.38983e+06   1.14894e+06
         3.42   3.27654e+06   2.65804e+06   2.19745e+06   1.39022e+06   1.14464e+06
         3.43   3.27688e+06   2.65775e+06   2.19594e+06   1.38962e+06   1.14322e+06
         3.44   3.27491e+06   2.65525e+06   2.19432e+06   1.37953e+06    1.1537e+06
         3.45   3.26981e+06   2.65501e+06   2.19191e+06   1.38681e+06   1.15278e+06
         3.46   3.26942e+06   2.65247e+06   2.19286e+06   1.38484e+06   1.15514e+06
         3.47    3.2663e+06   2.65227e+06   2.19127e+06   1.38537e+06   1.14475e+06
         3.48   3.26786e+06   2.64968e+06   2.18969e+06   1.38577e+06   1.14347e+06
         3.49   3.26158e+06   2.64583e+06   2.18706e+06   1.38576e+06   1.14426e+06
          3.5   3.26236e+06   2.64687e+06    2.1882e+06   1.38544e+06   1.14085e+06
         3.51   3.26033e+06   2.64439e+06   2.18643e+06   1.38338e+06   1.14344e+06
         3.52    3.2553e+06   2.64408e+06   2.18479e+06   1.38249e+06   1.13743e+06
         3.53   3.25473e+06   2.64155e+06   2.18206e+06   1.37372e+06   1.14175e+06