# Probe 0 (1 0 0)
# Probe 1 (140 0 0)
# Probe 2 (200 0 0)
# Probe 3 (249.6 0 0)
# Probe 4 (255 0 0)
#       Probe             0             1             2             3             4
#        Time
            0        274.13        274.13        274.13        274.13        274.13
         0.01       274.277       274.277       274.277       274.277       263.853
         0.02       274.277       274.277       274.277       274.276       250.405
         0.03       274.277       274.277       274.277       274.257       245.154
         0.04       274.277       274.277       274.277       273.909       242.568
         0.05       274.277       274.277       274.277       271.633       241.252
         0.06       274.277       274.277       274.277        270.75        240.65
         0.07       274.277       274.277       274.277       268.621       240.566
         0.08       274.277       274.277       274.277        265.22       240.854
         0.09       274.277       274.277       274.277       262.341       241.355
          0.1       274.277       274.277       274.277       260.155       241.926
         0.11       274.277       274.277       274.277       258.486       242.485
         0.12       274.277       274.277       274.277       257.178       242.975
         0.13       274.277       274.277       274.277        256.13       243.389
         0.14       274.277       274.277       274.277        255.27       243.729
         0.15       274.277       274.277       274.277       254.554       243.997
         0.16       274.277       274.277       274.277       253.955       244.211
         0.17       274.277       274.277       274.277       253.456       244.379
         0.18       274.277       274.277       274.277       253.046       244.509
         0.19       274.277       274.277       274.277       252.709       244.608
          0.2       274.277       274.277       274.277        252.45       244.684
         0.21       274.277       274.277       274.277       252.261       244.746
         0.22       274.277       274.277       274.277       252.127       244.799
         0.23       274.277       274.277       274.277       252.035       244.841
         0.24       274.277       274.277       274.277       251.976       244.877
         0.25       274.277       274.277       274.277       251.939       244.907
         0.26       274.277       274.277       274.277       251.917        244.93
         0.27       274.277       274.277       274.277       251.902       244.951
         0.28       274.277       274.277       274.277       251.887       244.966
         0.29       274.277       274.277       274.277       251.868        244.98
          0.3       274.277       274.277       274.277       251.844       244.993
         0.31       274.277       274.277       274.276       251.816       245.004
         0.32       274.277       274.277       274.276       251.784       245.014
         0.33       274.277       274.277       274.276       251.749        245.02
         0.34       274.277       274.277       274.276       251.711       245.026
         0.35       274.277       274.277       274.274        251.67        245.03
         0.36       274.277       274.277        274.27       251.628       245.034
         0.37       274.277       274.277       274.263       251.585       245.037
         0.38       274.277       274.277        274.25       251.542       245.039
         0.39       274.277       274.277       274.226       251.501        245.04
          0.4       274.277       274.277       274.188        251.46       245.039
         0.41       274.277       274.277       274.133        251.42       245.038
         0.42       274.277       274.277       274.061       251.379       245.037
         0.43       274.277       274.277       273.979        251.34       245.035
         0.44       274.277       274.277       273.901       251.304       245.033
         0.45       274.277       274.277        273.84       251.268        245.03
         0.46       274.277       274.277       273.886       251.232       245.026
         0.47       274.277       274.277       273.783       251.199       245.023
         0.48       274.277       274.277       273.552       251.167        245.02
         0.49       274.277       274.277       273.348       251.137       245.016
          0.5       274.277       274.277       273.077       251.109       245.013
         0.51       274.277       274.277        272.83       251.082       245.009
         0.52       274.277       274.277       272.689       251.056       245.007
         0.53       274.277       274.277       272.545       251.031       245.004
         0.54       274.277       274.277       272.494       251.007       245.002
         0.55       274.277       274.277       272.441       250.984       244.999
         0.56       274.277       274.277       272.501       250.964       244.996
         0.57       274.277       274.277       272.456       250.944       244.992
         0.58       274.277       274.277       272.346       250.926       244.988
         0.59       274.277       274.277       272.307       250.909       244.984
          0.6       274.277       274.277        272.28       250.893       244.981
         0.61       274.277       274.277       272.312       250.878       244.978
         0.62       274.277       274.277       272.205       250.864       244.974
         0.63       274.277       274.277       272.173       250.851       244.972
         0.64       274.277       274.277       272.247        250.84       244.969
         0.65       274.277       274.277       272.163        250.83       244.967
         0.66       274.277       274.277        272.16       250.822       244.964
         0.67       274.277       274.277       272.117       250.815       244.962
         0.68       274.277       274.277       272.079        250.81       244.961
         0.69       274.277       274.277        272.03       250.806       244.959
          0.7       274.277       274.276       271.873       250.803       244.957
         0.71       274.277       274.276       271.772       250.802       244.956
         0.72       274.277       274.276       271.588       250.802       244.956
         0.73       274.277       274.276        271.46       250.804       244.955
         0.74       274.277       274.276       270.843       250.851       244.954
         0.75       274.277       274.276       270.634       250.698       244.954
         0.76       274.277       274.275       270.405       250.544       244.953
         0.77       274.277       274.275       270.156       250.393       244.928
         0.78       274.277       274.273       269.905       250.322       244.788
         0.79       274.277       274.271       270.026       250.846       244.595
          0.8       274.277       274.268       269.781       250.944       244.753
         0.81       274.277       274.263       269.214       250.476       244.446
         0.82       274.277       274.256       268.986       249.983       244.688
         0.83       274.277       274.246        268.77       250.386       244.327
         0.84       274.277       274.232       268.566       249.805       244.009
         0.85       274.277       274.214       268.729       250.579       243.931
         0.86       274.277        274.19       268.178        249.73       243.941
         0.87       274.277       274.161       267.965       249.576       243.615
         0.88       274.277       274.126       268.112       249.621       243.542
         0.89       274.277       274.086       267.586       249.603        243.39
          0.9       274.277       274.043        267.78       249.467       243.278
         0.91       274.277       273.998       267.237        249.44        243.58
         0.92       274.277       273.954       267.429       250.085       243.092
         0.93       274.277       273.914       266.911       249.413       243.276
         0.94       274.277        273.88       266.875       249.565       242.903
         0.95       274.277       273.853       266.952       249.302       242.813
         0.96       274.277       273.833       266.448       249.717       242.758
         0.97       274.277        273.82       266.364       249.144       243.172
         0.98       274.277       273.799       266.492       249.224       242.659
         0.99       274.277       273.853        266.02       248.909       243.726
            1       274.277       273.715       265.947       248.807       242.401
         1.01       274.277       273.681       266.079       248.916        242.45
         1.02       274.277       273.616       265.624       249.603       243.284
         1.03       274.277       273.509       265.577        249.66       242.542
         1.04       274.277       273.372       265.683        248.67       242.271
         1.05       274.277       273.216       265.505       248.605       242.278
         1.06       274.277       273.058        265.14       248.815        243.67
         1.07       274.277       273.057       265.138       249.426       241.996
         1.08       274.277       272.934       265.196       248.545       241.951
         1.09       274.277        272.85       265.028        248.49       241.874
          1.1       274.277       272.658       264.836       248.205       242.073
         1.11       274.277       272.651       264.608       249.227       241.646
         1.12       274.277       272.554       264.548       248.205       242.199
         1.13       274.277        272.63       264.682       249.112       241.586
         1.14       274.277       272.527       264.526       248.589       242.637
         1.15       274.277       272.489       264.217       248.201       241.451
         1.16       274.277        272.47       264.374        248.34       242.446
         1.17       274.277       272.457       264.244       248.835       241.429
         1.18       274.277       272.446       263.957       247.771       241.597
         1.19       274.277       272.438       264.116       248.394       241.343
          1.2       274.277       272.432       263.815         248.3       242.083
         1.21       274.277       272.425       263.948       247.668       241.194
         1.22       274.277       272.538       263.828       248.621       242.133
         1.23       274.277       272.177       263.788       248.224       241.106
         1.24       274.277       272.473       263.659       248.114       241.113
         1.25       274.277       272.416       263.623       248.515       242.449
         1.26       274.277       272.336       263.507       247.419       242.329
         1.27       274.277       272.341       263.264        247.35       242.455
         1.28       274.277       272.311       263.224       248.422       242.484
         1.29       274.277       272.341       263.125       247.166       240.703
          1.3       274.277       272.331       263.218       248.345        240.76
         1.31       274.277       272.336       263.181       247.064       242.426
         1.32       274.277       272.334       262.929       247.083       240.532
         1.33       274.277       272.338        263.04       247.053       241.725
         1.34       274.277       272.333        262.91       247.112       240.445
         1.35       274.277        272.33       262.906       247.011       240.497
         1.36       274.277       272.328       262.883       247.751       240.485
         1.37       274.277       272.328        262.63       247.188       240.551
         1.38       274.277       272.323       262.735       247.596       240.394
         1.39       274.277        272.32       262.707       247.169       240.472
          1.4       274.277       272.319       262.486       247.443       241.341
         1.41       274.277       272.308       262.576       247.005       241.622
         1.42       274.277       272.299       262.451       247.493       241.604
         1.43       274.277       272.293       262.443       246.768       241.206
         1.44       274.277       272.283       262.429       247.576       239.907
         1.45       274.277        272.28       262.333       246.689       239.848
         1.46       274.277       272.273       262.321       247.188        240.48
         1.47       274.277       272.267       262.098       247.035       239.762
         1.48       274.277       272.255       262.216        246.91       239.693
         1.49       274.277       272.191       262.001       246.957       239.919
          1.5       274.277       272.056       262.123       246.834       241.174
         1.51       274.277       272.149       262.036       247.121       239.845
         1.52       274.277       272.159       262.043       246.644       241.228
         1.53       274.277       272.104       261.967       247.042       239.887
         1.54       274.277       272.131       261.767       246.266       241.141
         1.55       274.277       272.071       261.901       247.167       240.473
         1.56       274.277       272.047       261.833       246.194       240.717
         1.57       274.277       271.988       261.765        247.11       239.768
         1.58       274.277       271.565        261.58       246.096       240.625
         1.59       274.277       271.867       261.724       247.021       239.415
          1.6       274.277        271.83        261.66       246.022       240.533
         1.61       274.277       271.727       261.606       246.887       239.339
         1.62       274.277       271.424       261.448       246.345       240.429
         1.63       274.277         271.6       261.378       246.315       239.504
         1.64       274.276       271.428       261.525       246.809       239.826
         1.65       274.276       270.984       261.469       245.798       239.534
         1.66       274.276       270.864       261.423       246.786       239.186
         1.67       274.276       270.759       261.382       245.769       240.457
         1.68       274.276       270.641       261.342       246.547       239.057
         1.69       274.276       270.533       261.305       246.083       240.634
          1.7       274.276       270.769       261.268       245.935       239.194
         1.71       274.276       270.638        261.22       246.665       239.756
         1.72       274.276       270.616       261.182       246.235         239.3
         1.73       274.276       270.479       261.012       245.478       238.831
         1.74       274.276       270.341       261.145       246.104       240.558
         1.75       274.275       270.208       261.096         246.5       239.337
         1.76       274.275       270.076       261.051       245.828       238.638
         1.77       274.274       269.774       260.997       245.513       238.988
         1.78       274.274       269.552       260.829       246.355       240.296
         1.79       274.273       269.425       260.971       245.525        238.94
          1.8       274.271       269.323       260.923       245.209       238.524
         1.81       274.269         269.4       260.889       246.255       240.087
         1.82       274.267       269.455       260.854       245.418       238.753
         1.83       274.264       269.349       260.816       245.291       238.363
         1.84        274.26       269.245       260.776        246.16       239.897
         1.85       274.255       269.149       260.737       245.915       238.464
         1.86       274.249       269.046       260.573       244.995       238.249
         1.87       274.242       269.057       260.715        245.93       239.929
         1.88       274.233       268.953       260.681       245.956       238.854
         1.89       274.222       268.853       260.647       244.909       238.145
          1.9       274.208       268.762       260.608       245.904       239.692
         1.91       274.193       268.678        260.57        245.88       239.153
         1.92       274.174       268.596       260.534       244.804        238.02
         1.93       274.153       268.524       260.498       245.609       239.476
         1.94       274.128       268.446       260.464       245.824       238.882
         1.95         274.1       268.369        260.43       244.764       237.899
         1.96       274.069       268.297       260.396       245.294       238.772
         1.97       274.034       268.121       260.268       245.757       239.201
         1.98       273.996        268.06       260.224       245.043       237.847
         1.99       273.954       267.996       260.188       244.586       238.099
            2        273.91       267.639       260.158       245.658       239.493
         2.01       273.863       267.623       260.125       245.577       238.033
         2.02       273.815        267.79       260.096       244.656       237.635
         2.03       273.918       267.752       260.068       244.432       239.439
         2.04        273.87       267.711        260.04       245.408       238.588
         2.05       273.823       267.565       260.016       245.563       237.564
         2.06       273.777       267.526       259.988       244.932       237.456
         2.07       273.734       267.199       259.961       244.328        238.98
         2.08       273.694       267.412       259.937       244.385       239.377
         2.09       273.803       267.397       259.924       245.251        237.85
          2.1       273.763       267.273       259.994       245.387       237.352
         2.11       273.729       266.968       259.969       245.293       237.266
         2.12       273.699       267.192       259.943       244.253       238.802
         2.13       273.672       267.087       259.919       244.072        239.21
         2.14       273.647       266.791       259.895       244.825       238.241
         2.15       273.625       267.021        259.87       245.191       237.204
         2.16       273.606        266.92       259.846       245.188       237.056
         2.17       273.586       266.774        259.82       244.743       238.062
         2.18       273.717        266.86       259.795       243.971       238.944
         2.19       273.696       266.766       259.773        243.84       238.502
          2.2       273.669       266.486       259.748       244.793       237.396
         2.21       273.631       266.722       259.725       245.038       236.959
         2.22        273.58        266.63       259.704       244.966       236.798
         2.23       273.516       266.399       259.683       244.147        238.29
         2.24       273.588       266.611       259.662       243.805       238.794
         2.25       273.483       266.514        259.55       243.654       237.742
         2.26       273.504       266.502       259.433        244.09       236.999
         2.27       273.345       266.426       259.413       244.697       236.749
         2.28       273.305        266.41       259.397       244.837       236.577
         2.29       273.234       266.342        259.48       244.839       236.686
          2.3       273.132       266.333       259.343       244.525       238.287
         2.31       273.003       266.262       259.426       243.913       238.648
         2.32       272.851       266.267       259.401       243.776       238.366
         2.33       272.684       265.954       259.375       243.659       237.161
         2.34       272.506       266.108       259.348       243.555       236.719
         2.35       272.468       266.112       259.199       243.432       236.686
         2.36        272.01        266.06       259.166       243.302        236.53
         2.37       272.354       266.067       259.142       243.285       236.443
         2.38       272.282       265.794       259.292       243.227       236.335
         2.39       272.228       265.926       259.259       243.188       236.214
          2.4       272.183       265.937       259.233        243.13       236.195
         2.41       272.148       265.885        259.21       243.474        236.13
         2.42       271.712       265.799       259.189        243.59       236.093
         2.43        272.04       265.819       259.168        243.69       236.057
         2.44       272.037        265.77       258.973       244.146       236.192
         2.45       272.042       265.786       259.037       244.174       236.095
         2.46       271.921       265.581       259.011       244.077       236.639
         2.47       271.875       265.667       258.986       243.979       237.467
         2.48       271.906       265.678       259.042       243.875       237.689
         2.49       271.809       265.609       258.847       243.925       237.382
          2.5       271.792       265.568       258.952       244.028       237.296
         2.51       271.852       265.492       258.938       244.052       236.927
         2.52       271.384       265.389       258.948       244.101       237.119
         2.53       271.792       265.474       258.774       244.132       237.423
         2.54       271.342       265.406       258.774       244.132       237.563
         2.55       271.765       265.439       258.868       244.007       237.803
         2.56       271.666       265.401       258.828        243.86       237.848
         2.57       271.631       265.337       258.792        243.68       237.891
         2.58       271.679        265.28       258.782       243.218       237.496
         2.59       271.602       265.317       258.647       243.033       237.233
          2.6       271.584       265.281       258.769       244.004       236.835
         2.61       271.647       265.219       258.716       242.681       235.422
         2.62       271.584       265.167       258.556       243.945       235.644
         2.63        271.58       265.208       258.653       242.697       237.782
         2.64       271.523       265.177       258.619       243.936       235.381
         2.65       271.606       265.108        258.54       242.309       237.853
         2.66       271.559       265.084       258.628       243.876       235.306
         2.67       271.517       265.042       258.548       243.819       237.794
         2.68       271.521       265.093       258.398       242.425       235.074
         2.69       271.485       265.045       258.502       242.593       236.764
          2.7       271.587       264.989       258.539       243.813       237.568
         2.71       271.553       264.756       258.494       243.576       235.059
         2.72       271.514       264.945       258.432       242.342       235.427
         2.73       271.475       264.938       258.279       242.193       237.709
         2.74       271.494       264.692       258.451       243.333       237.042
         2.75       271.464       264.872       258.422       243.673        234.98
         2.76       271.434       264.862        258.36       243.586        235.08
         2.77       271.537       264.792       258.325       242.948       236.003
         2.78       271.493       264.805       258.313       241.992       237.598
         2.79       271.448       264.735       258.295       242.156       237.324
          2.8       271.455        264.75       258.259       243.447       235.441
         2.81       271.414       264.523       258.296       243.514       234.761
         2.82       271.499       264.695       258.244       243.431       234.962
         2.83       271.442       264.708       258.212       242.872       236.306
         2.84       271.385       264.643       258.221       241.787       237.417
         2.85       271.378       264.657       258.071       243.486        237.17
         2.86       271.453       264.591       257.984       241.671       235.708
         2.87       271.389       264.606       258.129        243.22       234.654
         2.88       271.374       264.541       258.136       243.435       237.486
         2.89       271.318       264.558       258.087       241.974       234.396
          2.9       271.388       264.494       258.055       241.398       237.193
         2.91       271.319       264.514       258.041       243.094       235.456
         2.92       271.313       264.451       257.995       243.332       234.209
         2.93       271.262       264.471       258.026       243.233       236.915
         2.94       271.345       264.408       257.859       241.361       237.425
         2.95        271.29       264.429       257.958       242.715       234.433
         2.96       271.282       264.368       257.919       243.184        234.16
         2.97       271.241       264.389       257.942       243.223       234.097
         2.98       271.202       264.331       257.729       242.351       234.808
         2.99       271.296       264.352       257.866        241.27       235.546
            3       271.251       264.296       257.882       241.564       237.093
         3.01        270.91       264.317       257.694       243.005       235.699
         3.02       271.221       264.262        257.81       243.096       235.457
         3.03       271.188       264.284       257.774       242.601       236.288
         3.04       271.163        264.23       257.795       241.133       236.835
         3.05       271.268       264.246       257.673       241.497       235.728
         3.06        271.23       264.199       257.717       242.663       236.928
         3.07       271.191       264.145       257.738       242.923       236.824
         3.08       271.204        264.17       257.517       242.946       236.611
         3.09       271.185       264.119       257.651       241.766        235.92
          3.1       271.158       264.142       257.673       241.836       234.213
         3.11       271.138       264.091       257.621       242.517       236.273
         3.12       271.121       264.115       257.639       242.487       236.292
         3.13       271.224       264.063       257.602       242.171       235.121
         3.14       271.187       264.013       257.391       241.214       236.354
         3.15       271.156       264.036       257.527       240.845       236.438
         3.16       271.138       263.987       257.554       242.247       233.834
         3.17        271.13        264.01       257.371        242.69       236.772
         3.18       271.137       263.961       257.465       241.688       233.661
         3.19        271.15       263.763       257.496       240.895       235.189
          3.2       271.162       263.935        257.44       241.967       236.402
         3.21        271.17       263.886       257.407       242.269       235.642
         3.22        271.17       263.909       257.427       242.494       236.528
         3.23       271.158        263.86       257.392       241.514       235.697
         3.24       271.148       263.888       257.237       242.563       233.905
         3.25        271.14       263.836       257.386        242.54       236.359
         3.26       271.132       263.788       257.347         241.2       235.952
         3.27       270.814        263.81       257.309       241.821       236.052
         3.28       271.139       263.761       257.143       242.242       233.819
         3.29        271.09       263.785       257.301       242.286       235.547
          3.3        271.17       263.734       257.262       242.163       234.167
         3.31        271.12       263.541       257.226        241.72       234.024
         3.32       271.091       263.707       257.106       240.831       233.176
         3.33        271.11       263.658       257.212       241.965       233.905
         3.34        271.07       263.678       257.177       242.183       236.194
         3.35       271.151       263.629       257.144       242.348       233.756
         3.36       271.091       263.652       257.031       240.692       232.947
         3.37        270.73       263.598       257.133       242.249       235.569
         3.38       271.025       263.516       257.101       242.274       233.197
         3.39       271.087       263.567        257.07       241.448       234.333
          3.4       271.012       263.517       256.889       241.509        234.33
         3.41       270.984       263.536       257.069       242.156       234.239
         3.42       271.029       263.485       257.032       242.172       233.161
         3.43       270.987       263.505       257.002       242.148       232.943
         3.44       271.026       263.453       256.968       240.725       235.811
         3.45       270.921       263.476        256.77        241.48       234.771
         3.46       270.874       263.421       256.966       241.089        235.45
         3.47       270.889       263.445       256.933       241.494       234.292
         3.48       270.954       263.388         256.9       241.982       234.147
         3.49       270.824       263.204       256.754       242.018        234.56
          3.5       270.877       263.355       256.908         241.9       234.386
         3.51       270.794       263.305        256.86       241.716       234.876
         3.52       270.769       263.324       256.824       241.826       232.886
         3.53       270.796       263.271       256.642       241.127       233.657