# Probe 0 (1 0 0)
# Probe 1 (140 0 0)
# Probe 2 (200 0 0)
# Probe 3 (249.6 0 0)
# Probe 4 (255 0 0)
#       Probe             0             1             2             3             4
#        Time
            0        274.13        274.13        274.13        274.13        274.13
         0.01       272.558       272.558       272.558       272.558       271.496
         0.02       272.558       272.558       272.558       272.558       269.896
         0.03       272.558       272.558       272.558       272.557       268.958
         0.04       272.558       272.558       272.558        272.54        268.28
         0.05       272.558       272.558       272.558       272.327       267.688
         0.06       272.558       272.558       272.558       271.896       267.115
         0.07       272.558       272.558       272.558        271.36       266.639
         0.08       272.558       272.558       272.558       270.678       266.192
         0.09       272.558       272.558       272.558       270.019       265.765
          0.1       272.558       272.558       272.558       269.411       265.383
         0.11       272.558       272.558       272.558       268.846       264.996
         0.12       272.558       272.558       272.558       268.316       264.639
         0.13       272.558       272.558       272.558       267.815       264.286
         0.14       272.558       272.558       272.558       267.337       263.935
         0.15       272.558       272.558       272.558       266.878       263.604
         0.16       272.558       272.558       272.558       266.438       263.268
         0.17       272.558       272.558       272.558        266.02       262.947
         0.18       272.558       272.558       272.558       265.627       262.632
         0.19       272.558       272.558       272.558       265.252       262.318
          0.2       272.558       272.558       272.558       264.882       262.019
         0.21       272.558       272.558       272.558       264.515       261.722
         0.22       272.558       272.558       272.558       264.166        261.43
         0.23       272.558       272.558       272.558       263.839       261.149
         0.24       272.558       272.558       272.558       263.522       260.866
         0.25       272.558       272.558       272.558       263.208       260.592
         0.26       272.558       272.558       272.558       262.907       260.325
         0.27       272.558       272.558       272.558       262.623       260.058
         0.28       272.558       272.558       272.558       262.344       259.799
         0.29       272.558       272.558       272.558        262.07       259.542
          0.3       272.558       272.558       272.558       261.806       259.288
         0.31       272.558       272.558       272.558       261.548        259.04
         0.32       272.558       272.558       272.558       261.288       258.792
         0.33       272.558       272.558       272.558       261.028       258.548
         0.34       272.558       272.558       272.558       260.778       258.309
         0.35       272.558       272.558       272.558       260.531        258.07
         0.36       272.558       272.558       272.558       260.284       257.834
         0.37       272.558       272.558       272.558       260.042       257.605
         0.38       272.558       272.558       272.557       259.807       257.377
         0.39       272.558       272.558       272.556       259.572       257.153
          0.4       272.558       272.558       272.554       259.337       256.934
         0.41       272.558       272.558       272.551       259.108       256.714
         0.42       272.558       272.558       272.547        258.88       256.493
         0.43       272.558       272.558       272.543       258.651       256.271
         0.44       272.558       272.558       272.539       258.425       256.048
         0.45       272.558       272.558       272.536       258.203       255.827
         0.46       272.558       272.558       272.532       257.982       255.606
         0.47       272.558       272.558       272.521       257.762       255.384
         0.48       272.558       272.558       272.503       257.545       255.162
         0.49       272.558       272.558       272.481       257.328        254.94
          0.5       272.558       272.558       272.456       257.107       254.715
         0.51       272.558       272.558       272.432       256.887       254.489
         0.52       272.558       272.558       272.413       256.666       254.262
         0.53       272.558       272.558         272.4       256.444       254.031
         0.54       272.558       272.558       272.392       256.221       253.799
         0.55       272.558       272.558       272.389       255.999       253.567
         0.56       272.558       272.558       272.386       255.779       253.333
         0.57       272.558       272.558        272.34       255.561       253.097
         0.58       272.558       272.558       272.229       255.345       252.858
         0.59       272.558       272.558       272.177       255.122       252.614
          0.6       272.558       272.558       272.176       254.895       252.363
         0.61       272.558       272.558       272.177       254.667       252.107
         0.62       272.558       272.558       272.137        254.44       251.846
         0.63       272.558       272.558       272.135        254.21       251.579
         0.64       272.558       272.558       272.134       253.974       251.307
         0.65       272.558       272.558        272.09       253.736       251.031
         0.66       272.558       272.558       272.085       253.497       250.753
         0.67       272.558       272.558       272.041       253.256       250.473
         0.68       272.558       272.558       271.958       253.008       250.183
         0.69       272.558       272.558       271.904       252.753       249.881
          0.7       272.558       272.558       271.797       252.495       249.569
         0.71       272.558       272.558       271.677       252.235        249.25
         0.72       272.558       272.558       271.537       251.976       248.923
         0.73       272.558       272.558       271.377       251.711       248.582
         0.74       272.558       272.558       271.172       251.446       248.227
         0.75       272.558       272.558       270.942        251.31       247.862
         0.76       272.558       272.558        270.71       251.215       247.487
         0.77       272.558       272.558       270.471       251.113       247.094
         0.78       272.558       272.558       270.234       251.003        246.68
         0.79       272.558       272.558       269.998       250.936       246.269
          0.8       272.558       272.558        269.73       250.882       246.245
         0.81       272.558       272.558       269.494       250.833       246.048
         0.82       272.558       272.557       269.268       250.757       245.943
         0.83       272.558       272.557       269.045       250.699       245.906
         0.84       272.558       272.556       268.825       250.597       245.826
         0.85       272.558       272.555       268.633       250.535       245.771
         0.86       272.558       272.554       268.437       250.468       245.599
         0.87       272.558       272.552       268.223       250.385       245.548
         0.88       272.558       272.551       268.046       250.363       245.402
         0.89       272.558       272.549       267.848       250.314         245.3
          0.9       272.558       272.547       267.671       250.253       245.176
         0.91       272.558       272.544       267.495       250.185       245.134
         0.92       272.558       272.542       267.322       250.147       245.081
         0.93       272.558        272.54        267.15       250.108       244.982
         0.94       272.558       272.538       267.005       250.028       244.897
         0.95       272.558       272.537        266.83       250.004       244.868
         0.96       272.558       272.536       266.672       249.937       244.784
         0.97       272.558       272.535        266.54       249.887       244.755
         0.98       272.558       272.534       266.384       249.869       244.678
         0.99       272.558       272.531       266.233       249.786       244.564
            1       272.558       272.524       266.114       249.722       244.506
         1.01       272.558       272.516       265.968       249.647        244.43
         1.02       272.558       272.507       265.826       249.624       244.376
         1.03       272.558       272.495       265.718       249.606       244.343
         1.04       272.558       272.482       265.584       249.524       244.294
         1.05       272.558       272.469       265.447       249.491       244.263
         1.06       272.558       272.455       265.337       249.456       244.243
         1.07       272.558       272.443       265.235       249.394       244.102
         1.08       272.558       272.431       265.116       249.273       244.122
         1.09       272.558       272.421       264.998       249.295       244.061
          1.1       272.558       272.411       264.881       249.162       244.087
         1.11       272.558       272.405       264.785       249.182       243.937
         1.12       272.558         272.4       264.693       249.131       243.969
         1.13       272.558       272.398       264.592       249.082       243.817
         1.14       272.558       272.393       264.486        248.99       243.878
         1.15       272.558       272.391       264.389       248.981       243.769
         1.16       272.558        272.39       264.316        248.95       243.689
         1.17       272.558        272.39       264.211       248.856       243.638
         1.18       272.558       272.389       264.121       248.816       243.593
         1.19       272.558       272.389       264.053       248.808       243.546
          1.2       272.558       272.388       263.958       248.681       243.518
         1.21       272.558       272.388       263.883       248.688       243.494
         1.22       272.558       272.388       263.792       248.647       243.519
         1.23       272.558       272.376       263.724       248.614       243.326
         1.24       272.558       272.341       263.637       248.575        243.42
         1.25       272.558        272.29       263.552       248.501       243.358
         1.26       272.558       272.241       263.488        248.41       243.329
         1.27       272.558       272.196       263.408       248.424       243.325
         1.28       272.558       272.195       263.348       248.384       243.216
         1.29       272.558       272.196       263.264       248.298       243.139
          1.3       272.558       272.196       263.209       248.308       243.157
         1.31       272.558       272.196       263.134       248.208       243.132
         1.32       272.558       272.196       263.069       248.183       243.023
         1.33       272.558       272.196       263.008       248.156       243.077
         1.34       272.558       272.196       262.933       248.128       242.918
         1.35       272.558       272.196       262.885       248.066       242.926
         1.36       272.558       272.196       262.814        248.02       242.901
         1.37       272.558       272.196       262.758       248.012       242.867
         1.38       272.558       272.195       262.704       247.939       242.804
         1.39       272.558       272.195       262.638       247.934       242.706
          1.4       272.558       272.195       262.592        247.86       242.743
         1.41       272.558       272.195       262.529       247.852       242.692
         1.42       272.558       272.194       262.468       247.789       242.652
         1.43       272.558       272.194       262.426       247.764       242.548
         1.44       272.558       272.193       262.364       247.729       242.459
         1.45       272.558       272.193       262.324       247.699       242.433
         1.46       272.558       272.193       262.262       247.631       242.403
         1.47       272.558       272.193       262.216       247.643       242.355
         1.48       272.558       272.192       262.163       247.552       242.323
         1.49       272.558       272.153       262.117       247.567       242.347
          1.5       272.558       272.112       262.063       247.481       242.396
         1.51       272.558       272.111       262.026         247.5       242.262
         1.52       272.558       272.106       261.964       247.405        242.32
         1.53       272.558       272.068       261.927       247.426       242.227
         1.54       272.558       272.024       261.881       247.329       242.243
         1.55       272.558       272.017       261.828       247.354       242.109
         1.56       272.558       271.975        261.79       247.277       242.101
         1.57       272.558       271.928       261.753       247.275       241.983
         1.58       272.558       271.845       261.695       247.208       242.051
         1.59       272.558       271.788       261.653       247.197       242.021
          1.6       272.558       271.734       261.619       247.145       241.975
         1.61       272.558       271.639       261.582       247.114       241.947
         1.62       272.558       271.577       261.542       247.106       241.906
         1.63       272.558       271.478       261.493       247.025       241.889
         1.64       272.558       271.367       261.448        247.05       241.789
         1.65       272.558       271.251       261.414       246.956        241.82
         1.66       272.558       271.157       261.376       246.956       241.712
         1.67       272.558       271.048       261.339       246.918       241.791
         1.68       272.558       270.928       261.301       246.866       241.684
         1.69       272.558       270.804       261.264       246.876       241.693
          1.7       272.558       270.689       261.226       246.785       241.658
         1.71       272.558       270.579       261.191       246.802       241.558
         1.72       272.558       270.469       261.157       246.785       241.597
         1.73       272.558       270.357       261.117       246.712       241.477
         1.74       272.558       270.249       261.078        246.66       241.535
         1.75       272.558       270.141       261.047       246.667       241.508
         1.76       272.558       270.034       261.015       246.646       241.415
         1.77       272.558       269.925       260.984       246.557       241.333
         1.78       272.558       269.809       260.938        246.56       241.385
         1.79       272.558       269.695       260.905       246.545       241.358
          1.8       272.558       269.585       260.874       246.459       241.255
         1.81       272.558       269.478       260.842       246.466       241.263
         1.82       272.558       269.383        260.81       246.448       241.258
         1.83       272.558       269.286       260.779       246.364       241.152
         1.84       272.557        269.19       260.747       246.364        241.16
         1.85       272.557       269.095       260.719       246.371       241.145
         1.86       272.557       269.003        260.68       246.284        241.05
         1.87       272.556       268.914       260.641        246.26       241.078
         1.88       272.556       268.826        260.61       246.277       241.079
         1.89       272.555       268.738       260.581       246.199       240.968
          1.9       272.555       268.651       260.553       246.173       240.956
         1.91       272.554       268.564       260.525       246.191       240.987
         1.92       272.553        268.48       260.496       246.112       240.879
         1.93       272.552       268.394       260.468       246.071       240.854
         1.94       272.551       268.315       260.439       246.091       240.892
         1.95       272.549       268.236       260.411       246.031       240.793
         1.96       272.548       268.157       260.382       245.967       240.734
         1.97       272.546       268.079       260.351       245.975        240.81
         1.98       272.544       268.001        260.32       245.965       240.713
         1.99       272.542       267.923       260.289       245.876       240.615
            2        272.54       267.861        260.26       245.883       240.665
         2.01       272.538       267.803       260.229       245.893       240.655
         2.02       272.535       267.738         260.2       245.842        240.55
         2.03       272.534       267.665       260.172       245.753       240.575
         2.04       272.532       267.592       260.144        245.75       240.588
         2.05       272.529       267.522       260.118       245.756       240.513
         2.06       272.527       267.453        260.09       245.742       240.408
         2.07       272.525       267.402       260.061       245.679        240.41
         2.08       272.523       267.352       260.036       245.609       240.495
         2.09       272.522       267.284        260.01       245.602       240.436
          2.1        272.52       267.216       259.984       245.596        240.35
         2.11       272.518       267.166       259.956       245.603        240.26
         2.12       272.517       267.117       259.928       245.548       240.263
         2.13       272.516       267.049         259.9       245.494        240.29
         2.14       272.514       266.991       259.872       245.445       240.293
         2.15       272.513       266.954       259.844       245.439       240.215
         2.16       272.512       266.887       259.816       245.453       240.143
         2.17       272.511       266.825       259.788       245.437       240.087
         2.18       272.512       266.795        259.76       245.365        240.12
         2.19       272.511       266.732       259.732       245.317        240.16
          2.2       272.509       266.678       259.705       245.282       240.111
         2.21       272.507       266.645       259.677       245.287       240.031
         2.22       272.505       266.585       259.649       245.301       239.962
         2.23       272.502       266.549       259.621       245.256        239.94
         2.24       272.499       266.498       259.593       245.212        239.98
         2.25       272.494       266.438       259.566       245.147       239.977
         2.26       272.489       266.412       259.542       245.111       239.924
         2.27       272.481       266.353       259.519       245.099       239.862
         2.28       272.473       266.327       259.497       245.094       239.775
         2.29       272.463       266.268       259.474       245.102       239.719
          2.3       272.452       266.242       259.444       245.087       239.745
         2.31        272.44       266.184       259.421       245.048       239.774
         2.32       272.427       266.158       259.394       245.014       239.809
         2.33       272.412       266.118       259.369        244.98       239.755
         2.34       272.398       266.074       259.341        244.95       239.703
         2.35       272.384       266.049       259.309       244.914       239.682
         2.36       272.301       265.991       259.278       244.871       239.633
         2.37       272.233       265.965       259.251       244.833       239.606
         2.38       272.179       265.932       259.228       244.806        239.56
         2.39       272.127       265.885       259.207       244.772       239.517
          2.4       272.078       265.863        259.18       244.739       239.474
         2.41       272.029       265.808       259.156       244.709       239.441
         2.42       271.993       265.783       259.132       244.679        239.41
         2.43       271.972       265.761       259.105       244.662       239.371
         2.44       271.925       265.707       259.085        244.65        239.32
         2.45       271.879       265.681       259.057        244.62       239.282
         2.46       271.832       265.657       259.033       244.592       239.271
         2.47       271.825       265.605       259.009       244.567        239.27
         2.48       271.783       265.583       258.984       244.537       239.252
         2.49       271.737       265.558       258.964       244.515       239.218
          2.5       271.731       265.507        258.95       244.495       239.182
         2.51        271.69       265.485       258.922       244.474       239.144
         2.52       271.652       265.461       258.903        244.45        239.13
         2.53       271.644       265.412       258.871       244.437       239.112
         2.54       271.613        265.39       258.843       244.414       239.103
         2.55         271.6       265.368       258.814       244.375       239.092
         2.56       271.595       265.317       258.795       244.347       239.067
         2.57       271.556       265.296       258.774       244.309       239.056
         2.58       271.553       265.274       258.743       244.273       238.991
         2.59       271.549       265.253       258.729       244.346       238.953
          2.6       271.511       265.202       258.706       244.248       238.907
         2.61       271.508       265.181       258.685       244.276       238.855
         2.62       271.505       265.161       258.652       244.199       238.978
         2.63        271.47        265.14       258.627       244.232       238.891
         2.64       271.468       265.089       258.605        244.16       238.905
         2.65       271.466       265.081        258.59       244.116       238.859
         2.66       271.464       265.042       258.565        244.18       238.849
         2.67       271.462       265.021       258.538       244.096       238.805
         2.68       271.425           265       258.508       244.019       238.724
         2.69       271.423        264.98       258.492       244.082       238.869
          2.7       271.422       264.939       258.473       244.068       238.719
         2.71       271.421       264.907       258.437       243.981       238.596
         2.72       271.419       264.901       258.428       243.927       238.723
         2.73       271.417       264.866       258.392       243.958       238.749
         2.74       271.383        264.84       258.381       243.996       238.585
         2.75       271.382       264.822       258.364       243.941       238.525
         2.76        271.38       264.787        258.33       243.881       238.593
         2.77        271.38       264.776       258.312       243.817       238.639
         2.78       271.378       264.744       258.288         243.8       238.611
         2.79       271.376       264.733       258.261       243.828       238.503
          2.8       271.342       264.701       258.246       243.855       238.385
         2.81        271.34       264.669       258.226       243.795       238.412
         2.82       271.338       264.658       258.193       243.747       238.452
         2.83       271.336       264.626       258.178       243.677       238.515
         2.84       271.333       264.615       258.166       243.677       238.445
         2.85       271.298       264.583       258.142       243.712       238.364
         2.86       271.296       264.572       258.106       243.654       238.247
         2.87       271.293        264.54       258.087       243.589       238.319
         2.88       271.255        264.53       258.078       243.666        238.38
         2.89       271.253       264.498       258.044       243.643       238.234
          2.9       271.251       264.487       258.029       243.491       238.249
         2.91       271.247       264.455       258.005       243.495       238.342
         2.92       271.212       264.445       257.994       243.546       238.126
         2.93        271.21       264.413       257.975       243.603       238.152
         2.94       271.208       264.402       257.949       243.458        238.29
         2.95       271.206        264.37       257.921       243.382       238.105
         2.96       271.171        264.36       257.906       243.424       238.048
         2.97       271.169       264.328       257.891        243.47       238.002
         2.98       271.167       264.318       257.852       243.475       238.085
         2.99       271.166       264.286       257.839       243.361       238.163
            3       271.164       264.276       257.827        243.26       238.168
         3.01       271.149       264.244         257.8       243.284       237.949
         3.02       271.128       264.234       257.774       243.332       237.908
         3.03       271.127       264.202       257.759       243.377       238.078
         3.04       271.126       264.192       257.746       243.248       238.042
         3.05       271.125        264.16       257.709       243.133       237.842
         3.06       271.124        264.15       257.697       243.158       237.959
         3.07       271.122       264.139       257.684       243.162       237.955
         3.08       271.088       264.108       257.645       243.202       237.874
         3.09       271.087       264.098       257.632       243.216       237.794
          3.1       271.086       264.066        257.62       243.064       237.749
         3.11       271.085       264.056       257.583       243.055       237.769
         3.12       271.084       264.025       257.568       243.041       237.812
         3.13       271.084       264.015       257.556           243       237.777
         3.14       271.082       264.005        257.52       242.955       237.695
         3.15       271.081       263.973       257.507        242.99        237.67
         3.16        271.08       263.963       257.494       243.013       237.688
         3.17       271.079       263.932       257.471       243.083        237.73
         3.18        271.08       263.922       257.442       243.013       237.585
         3.19        271.08       263.898        257.43       242.934       237.494
          3.2       271.081       263.881       257.415       242.876       237.599
         3.21       271.081       263.871       257.378       242.883       237.542
         3.22       271.081        263.84       257.362       242.961       237.609
         3.23       271.081        263.83       257.351       242.932       237.507
         3.24        271.08       263.799        257.33       242.938       237.535
         3.25        271.08       263.789       257.297       242.885       237.566
         3.26       271.079       263.779       257.286       242.811       237.573
         3.27       271.062       263.748       257.274       242.751       237.467
         3.28       271.045       263.737       257.251       242.776       237.385
         3.29       271.043       263.706       257.221       242.724       237.371
          3.3       271.041       263.696       257.209       242.677       237.466
         3.31       271.039       263.672       257.197       242.627       237.439
         3.32       271.038       263.655        257.16       242.595       237.184
         3.33       271.004       263.644       257.147       242.708       237.363
         3.34       271.002       263.613       257.134        242.61       237.289
         3.35       271.001       263.603       257.122       242.599       237.321
         3.36       270.998       263.572       257.084       242.533       237.095
         3.37       270.979       263.561       257.071       242.588       237.189
         3.38        270.96        263.53       257.057       242.662       237.203
         3.39       270.958        263.52       257.044       242.627       237.074
          3.4       270.955       263.509       257.017         242.6        237.07
         3.41       270.919       263.478       256.992       242.598       237.246
         3.42       270.915       263.468       256.979       242.572       237.106
         3.43       270.876       263.437       256.966       242.535       237.023
         3.44       270.872       263.426       256.952       242.438       237.157
         3.45       270.868       263.395       256.915       242.367       236.991
         3.46        270.83       263.385         256.9       242.322       237.068
         3.47       270.826       263.354       256.887        242.37       237.127
         3.48       270.786       263.344       256.874        242.41         237.1
         3.49        270.78       263.325       256.856       242.353       237.102
          3.5       270.739       263.302       256.825        242.29       237.087
         3.51       270.697       263.292       256.812       242.286       237.027
         3.52       270.691       263.261       256.799       242.304       236.825
         3.53       270.649        263.25       256.775       242.311       236.775