# Probe 0 (1 0 0)
# Probe 1 (140 0 0)
# Probe 2 (200 0 0)
# Probe 3 (249.6 0 0)
# Probe 4 (255 0 0)
#       Probe             0             1             2             3             4
#        Time
            0             (0 0 0)             (0 0 0)             (0 0 0)             (0 0 0)             (0 0 0)
         0.01             (-1.14571e-10 0 0)             (-8.78257e-11 0 0)             (-4.63921e-11 0 0)             (7.79767e-10 0 0)             (19.3684 0 0)
         0.02             (-9.64266e-11 0 0)             (2.66667e-10 0 0)             (-3.13441e-10 0 0)             (7.8983e-05 0 0)             (40.3871 0 0)
         0.03             (2.25334e-10 0 0)             (3.8842e-10 0 0)             (-1.04361e-10 0 0)             (0.0314632 0 0)             (48.7842 0 0)
         0.04             (-3.18109e-11 0 0)             (-2.92626e-10 0 0)             (2.20079e-10 0 0)             (0.42095 0 0)             (53.6347 0 0)
         0.05             (-9.02569e-11 0 0)             (2.77603e-10 0 0)             (-3.66807e-10 0 0)             (4.23449 0 0)             (57.0024 0 0)
         0.06             (-9.60548e-11 0 0)             (-7.23692e-12 0 0)             (-2.50337e-10 0 0)             (7.46422 0 0)             (59.0587 0 0)
         0.07             (2.33674e-10 0 0)             (4.14302e-11 0 0)             (8.73718e-10 0 0)             (10.9063 0 0)             (60.1626 0 0)
         0.08             (5.63026e-11 0 0)             (-6.22787e-10 0 0)             (7.36332e-10 0 0)             (16.4386 0 0)             (60.6079 0 0)
         0.09             (-1.91122e-10 0 0)             (1.93195e-10 0 0)             (4.64055e-10 0 0)             (21.4674 0 0)             (60.5989 0 0)
          0.1             (5.23005e-11 0 0)             (1.75292e-11 0 0)             (-3.85924e-10 0 0)             (25.6081 0 0)             (60.3473 0 0)
         0.11             (2.63732e-10 0 0)             (-1.03975e-10 0 0)             (-9.1717e-10 0 0)             (28.9981 0 0)             (60.059 0 0)
         0.12             (1.80481e-10 0 0)             (6.97416e-11 0 0)             (2.76019e-12 0 0)             (31.8195 0 0)             (59.834 0 0)
         0.13             (-2.02311e-10 0 0)             (5.23522e-10 0 0)             (4.75899e-10 0 0)             (34.2029 0 0)             (59.7 0 0)
         0.14             (-2.56616e-10 0 0)             (-1.33212e-10 0 0)             (6.8761e-10 0 0)             (36.2334 0 0)             (59.6626 0 0)
         0.15             (-1.72506e-10 0 0)             (3.26374e-10 0 0)             (1.65806e-11 0 0)             (37.9827 0 0)             (59.7034 0 0)
         0.16             (1.81707e-10 0 0)             (-1.14981e-10 0 0)             (-5.37309e-10 0 0)             (39.5125 0 0)             (59.8074 0 0)
         0.17             (8.67457e-11 0 0)             (-1.81563e-11 0 0)             (-4.2111e-10 0 0)             (40.8688 0 0)             (59.9575 0 0)
         0.18             (-1.15361e-10 0 0)             (1.72159e-10 0 0)             (3.0748e-10 0 0)             (42.0751 0 0)             (60.1327 0 0)
         0.19             (9.81468e-11 0 0)             (2.43856e-10 0 0)             (7.7713e-10 0 0)             (43.1226 0 0)             (60.3204 0 0)
          0.2             (2.95406e-10 0 0)             (-8.50893e-11 0 0)             (8.98559e-10 0 0)             (44.018 0 0)             (60.5152 0 0)
         0.21             (-5.02484e-11 0 0)             (-2.86758e-10 0 0)             (9.05163e-10 0 0)             (44.7661 0 0)             (60.7181 0 0)
         0.22             (-2.13488e-10 0 0)             (-2.74916e-10 0 0)             (1.25532e-09 0 0)             (45.3875 0 0)             (60.9258 0 0)
         0.23             (-1.75233e-10 0 0)             (-3.97661e-10 0 0)             (2.13269e-09 0 0)             (45.9055 0 0)             (61.1322 0 0)
         0.24             (2.49951e-10 0 0)             (1.6407e-10 0 0)             (1.97364e-09 0 0)             (46.3404 0 0)             (61.3375 0 0)
         0.25             (1.10199e-10 0 0)             (3.29383e-11 0 0)             (1.97448e-09 0 0)             (46.7137 0 0)             (61.5395 0 0)
         0.26             (-9.83201e-11 0 0)             (2.76064e-10 0 0)             (2.54687e-09 0 0)             (47.0487 0 0)             (61.737 0 0)
         0.27             (-1.17043e-10 0 0)             (-3.73799e-10 0 0)             (1.80355e-08 0 0)             (47.3602 0 0)             (61.9296 0 0)
         0.28             (-1.68725e-10 0 0)             (6.83679e-10 0 0)             (1.76453e-07 0 0)             (47.6538 0 0)             (62.1159 0 0)
         0.29             (7.68512e-11 0 0)             (1.18765e-10 0 0)             (1.21345e-06 0 0)             (47.9347 0 0)             (62.2971 0 0)
          0.3             (-3.62323e-11 0 0)             (2.88814e-10 0 0)             (6.733e-06 0 0)             (48.2115 0 0)             (62.4762 0 0)
         0.31             (-1.32168e-10 0 0)             (5.23127e-10 0 0)             (3.09639e-05 0 0)             (48.4866 0 0)             (62.652 0 0)
         0.32             (1.08747e-10 0 0)             (2.19787e-10 0 0)             (0.000120141 0 0)             (48.7591 0 0)             (62.8204 0 0)
         0.33             (-1.27236e-10 0 0)             (8.43876e-10 0 0)             (0.000399815 0 0)             (49.0302 0 0)             (62.9815 0 0)
         0.34             (-1.63359e-10 0 0)             (5.98973e-10 0 0)             (0.00116013 0 0)             (49.2995 0 0)             (63.1375 0 0)
         0.35             (1.37316e-10 0 0)             (7.07131e-10 0 0)             (0.00298389 0 0)             (49.5632 0 0)             (63.2888 0 0)
         0.36             (-7.58519e-11 0 0)             (1.42664e-10 0 0)             (0.00691128 0 0)             (49.8192 0 0)             (63.4349 0 0)
         0.37             (-2.55072e-10 0 0)             (8.41107e-11 0 0)             (0.0146196 0 0)             (50.0686 0 0)             (63.5774 0 0)
         0.38             (1.63536e-10 0 0)             (-7.06519e-11 0 0)             (0.0285551 0 0)             (50.3135 0 0)             (63.7162 0 0)
         0.39             (2.32071e-10 0 0)             (-2.26912e-10 0 0)             (0.0518497 0 0)             (50.5527 0 0)             (63.8498 0 0)
          0.4             (-1.16707e-10 0 0)             (9.80709e-11 0 0)             (0.0877045 0 0)             (50.7837 0 0)             (63.9781 0 0)
         0.41             (-2.27824e-10 0 0)             (1.29983e-10 0 0)             (0.137881 0 0)             (51.0052 0 0)             (64.1038 0 0)
         0.42             (1.68315e-10 0 0)             (1.98804e-10 0 0)             (0.200422 0 0)             (51.2175 0 0)             (64.2283 0 0)
         0.43             (1.22294e-10 0 0)             (4.10785e-11 0 0)             (0.267956 0 0)             (51.4233 0 0)             (64.3508 0 0)
         0.44             (-1.90034e-10 0 0)             (3.37507e-10 0 0)             (0.329 0 0)             (51.6231 0 0)             (64.4699 0 0)
         0.45             (1.15454e-10 0 0)             (3.00909e-10 0 0)             (0.37525 0 0)             (51.8143 0 0)             (64.5849 0 0)
         0.46             (2.84815e-10 0 0)             (7.41598e-10 0 0)             (0.457504 0 0)             (51.9964 0 0)             (64.697 0 0)
         0.47             (-3.62432e-12 0 0)             (1.27799e-09 0 0)             (0.678186 0 0)             (52.172 0 0)             (64.8079 0 0)
         0.48             (-2.71317e-12 0 0)             (9.2562e-10 0 0)             (0.961938 0 0)             (52.3424 0 0)             (64.9166 0 0)
         0.49             (2.96626e-10 0 0)             (1.24692e-09 0 0)             (1.34936 0 0)             (52.5065 0 0)             (65.0215 0 0)
          0.5             (1.78051e-10 0 0)             (1.65549e-09 0 0)             (1.76184 0 0)             (52.6636 0 0)             (65.1226 0 0)
         0.51             (4.37908e-11 0 0)             (1.26308e-09 0 0)             (2.15167 0 0)             (52.8148 0 0)             (65.2217 0 0)
         0.52             (3.41217e-10 0 0)             (1.15762e-09 0 0)             (2.44651 0 0)             (52.9603 0 0)             (65.319 0 0)
         0.53             (3.28613e-10 0 0)             (1.45575e-09 0 0)             (2.62541 0 0)             (53.0993 0 0)             (65.414 0 0)
         0.54             (-7.23986e-11 0 0)             (1.46274e-09 0 0)             (2.73789 0 0)             (53.2325 0 0)             (65.5071 0 0)
         0.55             (-1.26803e-10 0 0)             (1.50811e-09 0 0)             (2.75037 0 0)             (53.3614 0 0)             (65.5993 0 0)
         0.56             (3.45124e-11 0 0)             (1.41609e-09 0 0)             (2.76912 0 0)             (53.4863 0 0)             (65.6905 0 0)
         0.57             (1.68394e-10 0 0)             (1.5678e-09 0 0)             (2.95279 0 0)             (53.6067 0 0)             (65.7805 0 0)
         0.58             (-2.11865e-10 0 0)             (1.48283e-09 0 0)             (3.31957 0 0)             (53.7224 0 0)             (65.87 0 0)
         0.59             (-3.20886e-10 0 0)             (1.78231e-09 0 0)             (3.82843 0 0)             (53.834 0 0)             (65.9594 0 0)
          0.6             (2.45846e-11 0 0)             (1.59044e-09 0 0)             (3.91398 0 0)             (53.9413 0 0)             (66.0482 0 0)
         0.61             (1.81912e-10 0 0)             (2.07824e-09 0 0)             (3.82986 0 0)             (54.0438 0 0)             (66.1357 0 0)
         0.62             (-1.81352e-11 0 0)             (2.88558e-09 0 0)             (3.86255 0 0)             (54.1415 0 0)             (66.2218 0 0)
         0.63             (-1.63349e-10 0 0)             (1.12863e-08 0 0)             (3.84654 0 0)             (54.2351 0 0)             (66.3064 0 0)
         0.64             (-1.28228e-10 0 0)             (4.91789e-08 0 0)             (3.91965 0 0)             (54.3251 0 0)             (66.3896 0 0)
         0.65             (2.83887e-10 0 0)             (1.50632e-07 0 0)             (4.04782 0 0)             (54.4114 0 0)             (66.4711 0 0)
         0.66             (6.74717e-11 0 0)             (4.30037e-07 0 0)             (4.02497 0 0)             (54.4943 0 0)             (66.5515 0 0)
         0.67             (-4.7488e-11 0 0)             (1.167e-06 0 0)             (4.31864 0 0)             (54.5738 0 0)             (66.6313 0 0)
         0.68             (-8.61873e-11 0 0)             (2.99758e-06 0 0)             (4.36628 0 0)             (54.6504 0 0)             (66.7109 0 0)
         0.69             (2.40681e-10 0 0)             (7.32455e-06 0 0)             (4.56903 0 0)             (54.7236 0 0)             (66.7902 0 0)
          0.7             (-8.44289e-11 0 0)             (1.70694e-05 0 0)             (4.75236 0 0)             (54.793 0 0)             (66.8693 0 0)
         0.71             (-1.17756e-10 0 0)             (3.80102e-05 0 0)             (5.07492 0 0)             (54.8587 0 0)             (66.9484 0 0)
         0.72             (2.61165e-10 0 0)             (8.10156e-05 0 0)             (5.44083 0 0)             (54.921 0 0)             (67.0274 0 0)
         0.73             (5.063e-11 0 0)             (0.000165547 0 0)             (5.87082 0 0)             (54.9795 0 0)             (67.1059 0 0)
         0.74             (-1.20546e-10 0 0)             (0.000324834 0 0)             (6.30166 0 0)             (54.9582 0 0)             (67.1833 0 0)
         0.75             (-2.01414e-10 0 0)             (0.000613055 0 0)             (6.8682 0 0)             (54.691 0 0)             (67.2594 0 0)
         0.76             (-2.07736e-10 0 0)             (0.00111473 0 0)             (7.42254 0 0)             (54.6336 0 0)             (67.3331 0 0)
         0.77             (-1.09782e-10 0 0)             (0.00195624 0 0)             (8.0082 0 0)             (54.5034 0 0)             (67.3533 0 0)
         0.78             (1.38411e-10 0 0)             (0.00331906 0 0)             (8.60167 0 0)             (54.3769 0 0)             (67.1217 0 0)
         0.79             (8.81163e-11 0 0)             (0.00545373 0 0)             (9.20151 0 0)             (54.3071 0 0)             (66.7814 0 0)
          0.8             (-5.41842e-12 0 0)             (0.00869295 0 0)             (9.80408 0 0)             (54.3409 0 0)             (66.6553 0 0)
         0.81             (2.73861e-10 0 0)             (0.0134609 0 0)             (10.3678 0 0)             (54.3682 0 0)             (66.6177 0 0)
         0.82             (3.69729e-10 0 0)             (0.0202746 0 0)             (10.9336 0 0)             (54.3481 0 0)             (66.6883 0 0)
         0.83             (1.9308e-10 0 0)             (0.0297305 0 0)             (11.4799 0 0)             (54.3602 0 0)             (66.6494 0 0)
         0.84             (8.20666e-11 0 0)             (0.0424685 0 0)             (12.0123 0 0)             (54.3493 0 0)             (66.6212 0 0)
         0.85             (1.28977e-11 0 0)             (0.0591046 0 0)             (12.5036 0 0)             (54.3977 0 0)             (66.7539 0 0)
         0.86             (-4.05021e-11 0 0)             (0.0801263 0 0)             (13.0003 0 0)             (54.41 0 0)             (66.9498 0 0)
         0.87             (2.28271e-10 0 0)             (0.105754 0 0)             (13.5396 0 0)             (54.356 0 0)             (66.975 0 0)
         0.88             (1.41476e-10 0 0)             (0.135789 0 0)             (13.9903 0 0)             (54.2399 0 0)             (67.1612 0 0)
         0.89             (1.40573e-10 0 0)             (0.16948 0 0)             (14.4123 0 0)             (54.293 0 0)             (67.1929 0 0)
          0.9             (3.3547e-10 0 0)             (0.205473 0 0)             (14.9087 0 0)             (54.3959 0 0)             (67.318 0 0)
         0.91             (1.48585e-11 0 0)             (0.241887 0 0)             (15.2991 0 0)             (54.5852 0 0)             (67.2682 0 0)
         0.92             (-1.2892e-11 0 0)             (0.27655 0 0)             (15.7561 0 0)             (54.6801 0 0)             (67.4698 0 0)
         0.93             (1.43221e-11 0 0)             (0.30737 0 0)             (16.1586 0 0)             (54.5189 0 0)             (67.5713 0 0)
         0.94             (2.45494e-10 0 0)             (0.33275 0 0)             (16.5404 0 0)             (54.7782 0 0)             (67.5823 0 0)
         0.95             (3.94469e-11 0 0)             (0.351902 0 0)             (16.9608 0 0)             (54.6257 0 0)             (67.7033 0 0)
         0.96             (-7.62439e-11 0 0)             (0.364701 0 0)             (17.3161 0 0)             (54.8482 0 0)             (67.8751 0 0)
         0.97             (-8.22313e-11 0 0)             (0.376225 0 0)             (17.6745 0 0)             (54.7088 0 0)             (67.834 0 0)
         0.98             (2.38932e-10 0 0)             (0.383331 0 0)             (18.0675 0 0)             (54.9565 0 0)             (67.9081 0 0)
         0.99             (-1.25167e-10 0 0)             (0.465432 0 0)             (18.3844 0 0)             (54.959 0 0)             (67.9406 0 0)
            1             (-2.06067e-10 0 0)             (0.585165 0 0)             (18.7107 0 0)             (54.9788 0 0)             (68.1444 0 0)
         1.01             (1.35114e-10 0 0)             (0.710366 0 0)             (19.0728 0 0)             (54.8418 0 0)             (68.3186 0 0)
         1.02             (1.77579e-10 0 0)             (0.880119 0 0)             (19.3655 0 0)             (54.9184 0 0)             (68.1328 0 0)
         1.03             (-1.9944e-10 0 0)             (1.07244 0 0)             (19.6548 0 0)             (55.1656 0 0)             (68.5653 0 0)
         1.04             (-2.3444e-10 0 0)             (1.28456 0 0)             (19.9778 0 0)             (55.1903 0 0)             (68.4811 0 0)
         1.05             (8.52886e-11 0 0)             (1.50884 0 0)             (20.2635 0 0)             (55.1262 0 0)             (68.5428 0 0)
         1.06             (1.91575e-10 0 0)             (1.72183 0 0)             (20.5151 0 0)             (55.1027 0 0)             (68.314 0 0)
         1.07             (4.84338e-11 0 0)             (1.92777 0 0)             (20.7892 0 0)             (55.3591 0 0)             (68.6701 0 0)
         1.08             (4.02646e-11 0 0)             (2.11522 0 0)             (21.064 0 0)             (55.5214 0 0)             (68.5128 0 0)
         1.09             (2.08671e-11 0 0)             (2.28493 0 0)             (21.3348 0 0)             (55.3222 0 0)             (68.7087 0 0)
          1.1             (2.54968e-10 0 0)             (2.3957 0 0)             (21.5749 0 0)             (55.5106 0 0)             (68.5071 0 0)
         1.11             (3.00605e-10 0 0)             (2.5072 0 0)             (21.7964 0 0)             (55.5771 0 0)             (68.7818 0 0)
         1.12             (3.87961e-11 0 0)             (2.55933 0 0)             (22.0199 0 0)             (55.5631 0 0)             (68.5599 0 0)
         1.13             (1.76176e-10 0 0)             (2.6038 0 0)             (22.2606 0 0)             (55.7629 0 0)             (68.7224 0 0)
         1.14             (1.54913e-10 0 0)             (2.66294 0 0)             (22.4849 0 0)             (55.8689 0 0)             (68.8023 0 0)
         1.15             (-3.17112e-11 0 0)             (2.69165 0 0)             (22.6698 0 0)             (55.6161 0 0)             (68.8081 0 0)
         1.16             (8.96981e-11 0 0)             (2.68459 0 0)             (22.8792 0 0)             (55.6702 0 0)             (69.2397 0 0)
         1.17             (1.67486e-10 0 0)             (2.68476 0 0)             (23.0831 0 0)             (56.0605 0 0)             (69.0696 0 0)
         1.18             (-4.17572e-11 0 0)             (2.68916 0 0)             (23.2654 0 0)             (55.832 0 0)             (69.2279 0 0)
         1.19             (2.95739e-10 0 0)             (2.69062 0 0)             (23.4432 0 0)             (55.8513 0 0)             (69.0877 0 0)
          1.2             (2.25245e-10 0 0)             (2.69359 0 0)             (23.6364 0 0)             (56.178 0 0)             (69.3842 0 0)
         1.21             (3.63077e-11 0 0)             (2.67983 0 0)             (23.8166 0 0)             (55.9155 0 0)             (68.9012 0 0)
         1.22             (1.95252e-10 0 0)             (2.72828 0 0)             (23.977 0 0)             (56.1134 0 0)             (69.0895 0 0)
         1.23             (5.88047e-11 0 0)             (2.77381 0 0)             (24.1536 0 0)             (56.0137 0 0)             (69.2908 0 0)
         1.24             (-6.30264e-11 0 0)             (2.93023 0 0)             (24.2974 0 0)             (56.0448 0 0)             (69.0086 0 0)
         1.25             (3.80989e-11 0 0)             (3.15683 0 0)             (24.4587 0 0)             (56.3575 0 0)             (69.3519 0 0)
         1.26             (1.33547e-10 0 0)             (3.41514 0 0)             (24.6092 0 0)             (56.3952 0 0)             (69.3019 0 0)
         1.27             (-1.56944e-10 0 0)             (3.70215 0 0)             (24.7453 0 0)             (56.1496 0 0)             (69.2131 0 0)
         1.28             (-1.84853e-10 0 0)             (3.71971 0 0)             (24.8899 0 0)             (56.4137 0 0)             (69.5074 0 0)
         1.29             (2.20208e-10 0 0)             (3.67377 0 0)             (25.0365 0 0)             (56.3165 0 0)             (69.4124 0 0)
          1.3             (2.2521e-10 0 0)             (3.63 0 0)             (25.1672 0 0)             (56.4294 0 0)             (69.2423 0 0)
         1.31             (-7.05747e-12 0 0)             (3.63219 0 0)             (25.2984 0 0)             (56.3969 0 0)             (69.5166 0 0)
         1.32             (3.21912e-11 0 0)             (3.63283 0 0)             (25.4187 0 0)             (56.3777 0 0)             (69.3937 0 0)
         1.33             (2.26142e-10 0 0)             (3.64804 0 0)             (25.5479 0 0)             (56.3403 0 0)             (69.3113 0 0)
         1.34             (-3.68781e-11 0 0)             (3.65484 0 0)             (25.6605 0 0)             (56.3272 0 0)             (69.5551 0 0)
         1.35             (9.07841e-11 0 0)             (3.65604 0 0)             (25.7848 0 0)             (56.5143 0 0)             (69.4037 0 0)
         1.36             (3.74521e-10 0 0)             (3.66235 0 0)             (25.891 0 0)             (56.7603 0 0)             (69.393 0 0)
         1.37             (1.35867e-10 0 0)             (3.65935 0 0)             (25.9955 0 0)             (56.4652 0 0)             (69.3384 0 0)
         1.38             (6.7451e-11 0 0)             (3.6487 0 0)             (26.1008 0 0)             (56.8103 0 0)             (69.4997 0 0)
         1.39             (4.45589e-11 0 0)             (3.63767 0 0)             (26.2173 0 0)             (56.5312 0 0)             (69.8747 0 0)
          1.4             (4.18551e-10 0 0)             (3.63421 0 0)             (26.3007 0 0)             (56.8572 0 0)             (69.5669 0 0)
         1.41             (2.51405e-10 0 0)             (3.63272 0 0)             (26.4146 0 0)             (56.5956 0 0)             (69.6748 0 0)
         1.42             (1.44569e-10 0 0)             (3.63997 0 0)             (26.5069 0 0)             (56.9174 0 0)             (69.37 0 0)
         1.43             (1.88971e-10 0 0)             (3.64243 0 0)             (26.5909 0 0)             (56.6775 0 0)             (69.4896 0 0)
         1.44             (6.2588e-10 0 0)             (3.6364 0 0)             (26.6986 0 0)             (56.9518 0 0)             (69.8112 0 0)
         1.45             (4.59904e-10 0 0)             (3.63202 0 0)             (26.768 0 0)             (56.675 0 0)             (69.8658 0 0)
         1.46             (5.76699e-10 0 0)             (3.62211 0 0)             (26.8701 0 0)             (57.0419 0 0)             (69.7673 0 0)
         1.47             (1.15699e-09 0 0)             (3.60376 0 0)             (26.9403 0 0)             (56.7476 0 0)             (69.85 0 0)
         1.48             (1.27776e-09 0 0)             (3.64299 0 0)             (27.0343 0 0)             (57.0486 0 0)             (69.9093 0 0)
         1.49             (1.53491e-09 0 0)             (3.69204 0 0)             (27.1018 0 0)             (56.7906 0 0)             (70.0851 0 0)
          1.5             (2.55219e-09 0 0)             (3.73809 0 0)             (27.1921 0 0)             (57.103 0 0)             (69.8436 0 0)
         1.51             (4.27514e-09 0 0)             (3.86817 0 0)             (27.2486 0 0)             (56.8474 0 0)             (69.9939 0 0)
         1.52             (6.71709e-09 0 0)             (3.89456 0 0)             (27.3389 0 0)             (57.1399 0 0)             (69.7377 0 0)
         1.53             (1.17333e-08 0 0)             (3.95722 0 0)             (27.4033 0 0)             (56.8987 0 0)             (70.0361 0 0)
         1.54             (2.3972e-08 0 0)             (3.99987 0 0)             (27.4627 0 0)             (57.159 0 0)             (69.8219 0 0)
         1.55             (4.66148e-08 0 0)             (4.10615 0 0)             (27.549 0 0)             (57.0346 0 0)             (69.8344 0 0)
         1.56             (8.53752e-08 0 0)             (4.18481 0 0)             (27.6085 0 0)             (57.1182 0 0)             (69.8353 0 0)
         1.57             (1.49008e-07 0 0)             (4.28581 0 0)             (27.6617 0 0)             (57.142 0 0)             (69.9918 0 0)
         1.58             (2.52296e-07 0 0)             (4.4333 0 0)             (27.7302 0 0)             (57.0929 0 0)             (70.2241 0 0)
         1.59             (4.18914e-07 0 0)             (4.55836 0 0)             (27.8037 0 0)             (57.2208 0 0)             (70.1349 0 0)
          1.6             (6.85256e-07 0 0)             (4.7416 0 0)             (27.8539 0 0)             (57.0795 0 0)             (70.5132 0 0)
         1.61             (1.10692e-06 0 0)             (4.94983 0 0)             (27.9062 0 0)             (57.3819 0 0)             (70.0958 0 0)
         1.62             (1.76731e-06 0 0)             (5.09492 0 0)             (27.9599 0 0)             (57.0405 0 0)             (70.2051 0 0)
         1.63             (2.78968e-06 0 0)             (5.33238 0 0)             (28.022 0 0)             (57.3907 0 0)             (69.9397 0 0)
         1.64             (4.35361e-06 0 0)             (5.56597 0 0)             (28.085 0 0)             (57.1575 0 0)             (70.5543 0 0)
         1.65             (6.71724e-06 0 0)             (5.78632 0 0)             (28.1313 0 0)             (57.3193 0 0)             (70.178 0 0)
         1.66             (1.02467e-05 0 0)             (6.05257 0 0)             (28.1807 0 0)             (57.3988 0 0)             (70.4715 0 0)
         1.67             (1.54545e-05 0 0)             (6.31874 0 0)             (28.23 0 0)             (57.1559 0 0)             (70.3576 0 0)
         1.68             (2.30479e-05 0 0)             (6.57699 0 0)             (28.2785 0 0)             (57.5339 0 0)             (70.3839 0 0)
         1.69             (3.39907e-05 0 0)             (6.84499 0 0)             (28.3262 0 0)             (57.1734 0 0)             (70.6581 0 0)
          1.7             (4.9577e-05 0 0)             (7.12139 0 0)             (28.3772 0 0)             (57.5364 0 0)             (70.1701 0 0)
         1.71             (7.15219e-05 0 0)             (7.41777 0 0)             (28.4175 0 0)             (57.4836 0 0)             (70.7867 0 0)
         1.72             (0.000102066 0 0)             (7.70948 0 0)             (28.4602 0 0)             (57.2405 0 0)             (70.2283 0 0)
         1.73             (0.000144096 0 0)             (7.98279 0 0)             (28.5056 0 0)             (57.3284 0 0)             (70.7191 0 0)
         1.74             (0.000201278 0 0)             (8.24986 0 0)             (28.5536 0 0)             (57.6457 0 0)             (70.6876 0 0)
         1.75             (0.000278206 0 0)             (8.51776 0 0)             (28.5873 0 0)             (57.596 0 0)             (70.2909 0 0)
         1.76             (0.000380548 0 0)             (8.78885 0 0)             (28.625 0 0)             (57.2901 0 0)             (70.5582 0 0)
         1.77             (0.0005152 0 0)             (9.061 0 0)             (28.6592 0 0)             (57.6216 0 0)             (70.9619 0 0)
         1.78             (0.000690422 0 0)             (9.33268 0 0)             (28.7072 0 0)             (57.7024 0 0)             (70.8718 0 0)
         1.79             (0.000915961 0 0)             (9.60753 0 0)             (28.7519 0 0)             (57.3604 0 0)             (70.4023 0 0)
          1.8             (0.00120312 0 0)             (9.87857 0 0)             (28.781 0 0)             (57.6413 0 0)             (70.8757 0 0)
         1.81             (0.0015648 0 0)             (10.1438 0 0)             (28.8163 0 0)             (57.7169 0 0)             (71.0759 0 0)
         1.82             (0.00201541 0 0)             (10.3999 0 0)             (28.8503 0 0)             (57.3985 0 0)             (70.4857 0 0)
         1.83             (0.00257073 0 0)             (10.6523 0 0)             (28.8844 0 0)             (57.7648 0 0)             (70.9498 0 0)
         1.84             (0.0032476 0 0)             (10.8935 0 0)             (28.9156 0 0)             (57.8312 0 0)             (71.0852 0 0)
         1.85             (0.00406348 0 0)             (11.1231 0 0)             (28.9436 0 0)             (57.4777 0 0)             (70.5873 0 0)
         1.86             (0.00503574 0 0)             (11.3458 0 0)             (28.9795 0 0)             (57.653 0 0)             (71.046 0 0)
         1.87             (0.00618078 0 0)             (11.5632 0 0)             (29.0215 0 0)             (57.9061 0 0)             (71.2226 0 0)
         1.88             (0.00751293 0 0)             (11.7734 0 0)             (29.0546 0 0)             (57.5421 0 0)             (70.6248 0 0)
         1.89             (0.00904297 0 0)             (11.9812 0 0)             (29.0821 0 0)             (57.6827 0 0)             (70.957 0 0)
          1.9             (0.0107765 0 0)             (12.1839 0 0)             (29.1094 0 0)             (57.968 0 0)             (71.34 0 0)
         1.91             (0.0127122 0 0)             (12.383 0 0)             (29.138 0 0)             (57.6013 0 0)             (70.7787 0 0)
         1.92             (0.0148395 0 0)             (12.578 0 0)             (29.1673 0 0)             (57.6383 0 0)             (71.0064 0 0)
         1.93             (0.0171372 0 0)             (12.7686 0 0)             (29.1955 0 0)             (58.0085 0 0)             (71.419 0 0)
         1.94             (0.019571 0 0)             (12.9579 0 0)             (29.2239 0 0)             (57.7396 0 0)             (70.7836 0 0)
         1.95             (0.0220928 0 0)             (13.142 0 0)             (29.252 0 0)             (57.6686 0 0)             (70.9575 0 0)
         1.96             (0.0246394 0 0)             (13.318 0 0)             (29.2799 0 0)             (58.0363 0 0)             (71.4786 0 0)
         1.97             (0.0271335 0 0)             (13.4882 0 0)             (29.3099 0 0)             (58.0319 0 0)             (70.9908 0 0)