# Probe 0 (1 0 0)
# Probe 1 (140 0 0)
# Probe 2 (200 0 0)
# Probe 3 (249.6 0 0)
# Probe 4 (255 0 0)
#       Probe             0             1             2             3             4
#        Time
            0             (0 0 0)             (0 0 0)             (0 0 0)             (0 0 0)             (0 0 0)
         0.01             (-5.69935e-11 0 0)             (-2.03039e-12 0 0)             (-1.61315e-11 0 0)             (1.18409e-10 0 0)             (13.5 0 0)
         0.02             (-8.56793e-11 0 0)             (6.42119e-11 0 0)             (-6.79941e-11 0 0)             (1.77819e-05 0 0)             (36.9594 0 0)
         0.03             (7.46369e-11 0 0)             (2.67538e-10 0 0)             (-1.13716e-11 0 0)             (0.0104088 0 0)             (46.1394 0 0)
         0.04             (7.00259e-11 0 0)             (2.24678e-11 0 0)             (8.35181e-11 0 0)             (0.244244 0 0)             (51.3755 0 0)
         0.05             (-2.22663e-11 0 0)             (1.30868e-10 0 0)             (-2.25148e-11 0 0)             (2.77944 0 0)             (54.9945 0 0)
         0.06             (-6.1941e-11 0 0)             (5.85895e-11 0 0)             (-3.27038e-11 0 0)             (4.32155 0 0)             (57.2401 0 0)
         0.07             (7.95148e-11 0 0)             (1.06614e-10 0 0)             (2.59777e-10 0 0)             (8.05304 0 0)             (58.5847 0 0)
         0.08             (1.14912e-10 0 0)             (-3.3641e-10 0 0)             (2.37334e-10 0 0)             (14.2002 0 0)             (59.2932 0 0)
         0.09             (-4.43663e-11 0 0)             (-1.01189e-10 0 0)             (2.50453e-10 0 0)             (19.7188 0 0)             (59.5043 0 0)
          0.1             (-5.09856e-11 0 0)             (-6.49727e-11 0 0)             (-3.45415e-11 0 0)             (24.1441 0 0)             (59.4001 0 0)
         0.11             (1.1535e-10 0 0)             (-1.0713e-10 0 0)             (-1.94713e-10 0 0)             (27.7117 0 0)             (59.1849 0 0)
         0.12             (1.71735e-10 0 0)             (-3.35077e-11 0 0)             (5.67548e-11 0 0)             (30.6534 0 0)             (58.9809 0 0)
         0.13             (-5.69116e-12 0 0)             (3.21045e-10 0 0)             (1.37184e-10 0 0)             (33.1237 0 0)             (58.8389 0 0)
         0.14             (-1.49426e-10 0 0)             (4.08071e-11 0 0)             (1.1988e-10 0 0)             (35.2215 0 0)             (58.7785 0 0)
         0.15             (-1.80498e-10 0 0)             (2.23508e-10 0 0)             (-9.68453e-11 0 0)             (37.0235 0 0)             (58.7919 0 0)
         0.16             (-5.33851e-12 0 0)             (4.13098e-11 0 0)             (-7.7884e-11 0 0)             (38.5986 0 0)             (58.8695 0 0)
         0.17             (8.15057e-11 0 0)             (1.88383e-11 0 0)             (-1.21162e-10 0 0)             (39.9941 0 0)             (58.9981 0 0)
         0.18             (-1.61301e-11 0 0)             (2.89186e-12 0 0)             (8.90871e-11 0 0)             (41.241 0 0)             (59.1578 0 0)
         0.19             (-1.24541e-11 0 0)             (1.93611e-10 0 0)             (2.73556e-10 0 0)             (42.3291 0 0)             (59.3341 0 0)
          0.2             (1.55419e-10 0 0)             (2.30247e-11 0 0)             (3.56712e-10 0 0)             (43.2579 0 0)             (59.521 0 0)
         0.21             (1.04487e-10 0 0)             (-9.07779e-11 0 0)             (7.14783e-10 0 0)             (44.0366 0 0)             (59.7177 0 0)
         0.22             (-6.46072e-11 0 0)             (-1.78658e-10 0 0)             (1.1273e-09 0 0)             (44.686 0 0)             (59.9216 0 0)
         0.23             (-1.27629e-10 0 0)             (-2.5428e-10 0 0)             (1.49782e-09 0 0)             (45.2295 0 0)             (60.1255 0 0)
         0.24             (4.51549e-11 0 0)             (-7.34985e-11 0 0)             (1.65257e-09 0 0)             (45.6861 0 0)             (60.3289 0 0)
         0.25             (1.24794e-10 0 0)             (-3.95106e-11 0 0)             (1.85411e-09 0 0)             (46.0759 0 0)             (60.5296 0 0)
         0.26             (1.0754e-11 0 0)             (1.49458e-10 0 0)             (2.21329e-09 0 0)             (46.4214 0 0)             (60.7262 0 0)
         0.27             (-5.52626e-11 0 0)             (-4.84718e-11 0 0)             (7.06324e-09 0 0)             (46.7388 0 0)             (60.9184 0 0)
         0.28             (-1.10168e-10 0 0)             (1.38184e-10 0 0)             (6.91154e-08 0 0)             (47.0352 0 0)             (61.1044 0 0)
         0.29             (-4.23295e-11 0 0)             (3.16168e-10 0 0)             (4.99446e-07 0 0)             (47.3161 0 0)             (61.2853 0 0)
          0.3             (-2.48976e-12 0 0)             (1.54032e-10 0 0)             (2.91047e-06 0 0)             (47.5903 0 0)             (61.4639 0 0)
         0.31             (-6.96962e-11 0 0)             (4.33011e-10 0 0)             (1.40448e-05 0 0)             (47.8621 0 0)             (61.6394 0 0)
         0.32             (1.73388e-11 0 0)             (3.20924e-10 0 0)             (5.7237e-05 0 0)             (48.131 0 0)             (61.8081 0 0)
         0.33             (-3.22293e-11 0 0)             (5.30055e-10 0 0)             (0.000200334 0 0)             (48.3984 0 0)             (61.9691 0 0)
         0.34             (-1.02207e-10 0 0)             (6.41573e-10 0 0)             (0.000612322 0 0)             (48.6643 0 0)             (62.1249 0 0)
         0.35             (-1.55882e-11 0 0)             (6.60483e-10 0 0)             (0.00166156 0 0)             (48.9256 0 0)             (62.276 0 0)
         0.36             (1.55875e-11 0 0)             (4.35474e-10 0 0)             (0.00406589 0 0)             (49.1796 0 0)             (62.4219 0 0)
         0.37             (-1.33371e-10 0 0)             (2.53228e-10 0 0)             (0.00909505 0 0)             (49.4271 0 0)             (62.5639 0 0)
         0.38             (-2.16572e-11 0 0)             (1.13226e-10 0 0)             (0.0187893 0 0)             (49.6702 0 0)             (62.7022 0 0)
         0.39             (1.1587e-10 0 0)             (-1.31525e-10 0 0)             (0.0360579 0 0)             (49.908 0 0)             (62.8352 0 0)
          0.4             (4.83836e-11 0 0)             (-9.3836e-12 0 0)             (0.0643426 0 0)             (50.1382 0 0)             (62.9628 0 0)
         0.41             (-1.03363e-10 0 0)             (3.54274e-11 0 0)             (0.106414 0 0)             (50.3592 0 0)             (63.0871 0 0)
         0.42             (-2.12743e-11 0 0)             (1.44731e-10 0 0)             (0.162194 0 0)             (50.5709 0 0)             (63.2102 0 0)
         0.43             (1.03087e-10 0 0)             (9.52394e-11 0 0)             (0.226636 0 0)             (50.7759 0 0)             (63.3313 0 0)
         0.44             (-4.33821e-11 0 0)             (2.15675e-10 0 0)             (0.289945 0 0)             (50.9751 0 0)             (63.449 0 0)
         0.45             (-2.41245e-11 0 0)             (3.06215e-10 0 0)             (0.342091 0 0)             (51.1662 0 0)             (63.5625 0 0)
         0.46             (1.39638e-10 0 0)             (4.2967e-10 0 0)             (0.397736 0 0)             (51.3482 0 0)             (63.673 0 0)
         0.47             (1.0102e-10 0 0)             (8.82732e-10 0 0)             (0.570181 0 0)             (51.5234 0 0)             (63.782 0 0)
         0.48             (2.66084e-11 0 0)             (8.56875e-10 0 0)             (0.82018 0 0)             (51.6933 0 0)             (63.8892 0 0)
         0.49             (1.63524e-10 0 0)             (1.08518e-09 0 0)             (1.16035 0 0)             (51.8571 0 0)             (63.9926 0 0)
          0.5             (2.10336e-10 0 0)             (1.32925e-09 0 0)             (1.5464 0 0)             (52.014 0 0)             (64.0924 0 0)
         0.51             (1.28066e-10 0 0)             (1.31545e-09 0 0)             (1.92044 0 0)             (52.1648 0 0)             (64.1899 0 0)
         0.52             (2.06048e-10 0 0)             (1.27994e-09 0 0)             (2.22325 0 0)             (52.3099 0 0)             (64.2857 0 0)
         0.53             (2.95735e-10 0 0)             (1.31061e-09 0 0)             (2.43406 0 0)             (52.4487 0 0)             (64.3791 0 0)
         0.54             (1.26486e-10 0 0)             (1.41523e-09 0 0)             (2.57204 0 0)             (52.5814 0 0)             (64.4702 0 0)
         0.55             (-1.18893e-11 0 0)             (1.45123e-09 0 0)             (2.64733 0 0)             (52.7097 0 0)             (64.5599 0 0)
         0.56             (-3.73971e-11 0 0)             (1.47635e-09 0 0)             (2.68688 0 0)             (52.834 0 0)             (64.6485 0 0)
         0.57             (7.88767e-11 0 0)             (1.51883e-09 0 0)             (2.76455 0 0)             (52.9538 0 0)             (64.7357 0 0)
         0.58             (-4.00083e-11 0 0)             (1.51276e-09 0 0)             (2.90219 0 0)             (53.069 0 0)             (64.8221 0 0)
         0.59             (-1.88638e-10 0 0)             (1.68169e-09 0 0)             (2.98382 0 0)             (53.1799 0 0)             (64.9085 0 0)
          0.6             (-1.34806e-10 0 0)             (1.5968e-09 0 0)             (3.01031 0 0)             (53.2866 0 0)             (64.9944 0 0)
         0.61             (2.99873e-11 0 0)             (1.84312e-09 0 0)             (3.02309 0 0)             (53.3886 0 0)             (65.079 0 0)
         0.62             (5.73485e-11 0 0)             (2.23458e-09 0 0)             (3.04931 0 0)             (53.4858 0 0)             (65.1623 0 0)
         0.63             (-6.30309e-11 0 0)             (5.47706e-09 0 0)             (3.07479 0 0)             (53.5789 0 0)             (65.2441 0 0)
         0.64             (-1.16429e-10 0 0)             (2.31839e-08 0 0)             (3.11299 0 0)             (53.6682 0 0)             (65.3243 0 0)
         0.65             (8.59996e-11 0 0)             (7.68383e-08 0 0)             (3.16991 0 0)             (53.7539 0 0)             (65.4028 0 0)
         0.66             (1.21806e-10 0 0)             (2.25508e-07 0 0)             (3.22974 0 0)             (53.8361 0 0)             (65.4799 0 0)
         0.67             (3.54081e-11 0 0)             (6.25026e-07 0 0)             (3.33792 0 0)             (53.915 0 0)             (65.5562 0 0)
         0.68             (-3.02359e-11 0 0)             (1.63957e-06 0 0)             (3.46159 0 0)             (53.9908 0 0)             (65.6322 0 0)
         0.69             (9.67499e-11 0 0)             (4.08862e-06 0 0)             (3.64301 0 0)             (54.0633 0 0)             (65.7078 0 0)
          0.7             (3.09764e-11 0 0)             (9.72188e-06 0 0)             (3.8772 0 0)             (54.1321 0 0)             (65.7829 0 0)
         0.71             (-5.07642e-11 0 0)             (2.2089e-05 0 0)             (4.19463 0 0)             (54.197 0 0)             (65.8579 0 0)
         0.72             (6.14018e-11 0 0)             (4.80452e-05 0 0)             (4.58269 0 0)             (54.2586 0 0)             (65.9327 0 0)
         0.73             (1.13341e-10 0 0)             (0.00010021 0 0)             (5.05057 0 0)             (54.3168 0 0)             (66.0069 0 0)
         0.74             (-5.36856e-12 0 0)             (0.000200765 0 0)             (5.57016 0 0)             (54.317 0 0)             (66.08 0 0)
         0.75             (-1.0542e-10 0 0)             (0.000387006 0 0)             (6.1495 0 0)             (54.0564 0 0)             (66.1519 0 0)
         0.76             (-1.59339e-10 0 0)             (0.000719044 0 0)             (6.75535 0 0)             (53.9828 0 0)             (66.2218 0 0)
         0.77             (-1.40013e-10 0 0)             (0.00128992 0 0)             (7.38323 0 0)             (53.8987 0 0)             (66.2517 0 0)
         0.78             (-3.57876e-11 0 0)             (0.0022382 0 0)             (8.0178 0 0)             (53.8222 0 0)             (66.053 0 0)
         0.79             (6.23309e-11 0 0)             (0.00376269 0 0)             (8.65298 0 0)             (53.7623 0 0)             (65.7249 0 0)
          0.8             (1.24887e-11 0 0)             (0.00613817 0 0)             (9.27202 0 0)             (53.7396 0 0)             (65.6135 0 0)
         0.81             (1.012e-10 0 0)             (0.00972999 0 0)             (9.87566 0 0)             (53.7267 0 0)             (65.5172 0 0)
         0.82             (2.75008e-10 0 0)             (0.0150035 0 0)             (10.4667 0 0)             (53.7193 0 0)             (65.4733 0 0)
         0.83             (2.52971e-10 0 0)             (0.022522 0 0)             (11.0386 0 0)             (53.7569 0 0)             (65.5719 0 0)
         0.84             (1.70554e-10 0 0)             (0.0329243 0 0)             (11.5919 0 0)             (53.6909 0 0)             (65.5297 0 0)
         0.85             (9.21292e-11 0 0)             (0.046872 0 0)             (12.1201 0 0)             (53.7257 0 0)             (65.5407 0 0)
         0.86             (2.47583e-11 0 0)             (0.0649583 0 0)             (12.6288 0 0)             (53.7212 0 0)             (65.6939 0 0)
         0.87             (9.05483e-11 0 0)             (0.0875779 0 0)             (13.1344 0 0)             (53.7252 0 0)             (65.7813 0 0)
         0.88             (1.40366e-10 0 0)             (0.114771 0 0)             (13.6181 0 0)             (53.7348 0 0)             (65.8794 0 0)
         0.89             (1.38375e-10 0 0)             (0.146076 0 0)             (14.0733 0 0)             (53.7636 0 0)             (65.9783 0 0)
          0.9             (2.27299e-10 0 0)             (0.180442 0 0)             (14.5401 0 0)             (53.7884 0 0)             (66.0541 0 0)
         0.91             (1.45572e-10 0 0)             (0.216255 0 0)             (14.9725 0 0)             (53.8515 0 0)             (66.0944 0 0)
         0.92             (5.33609e-11 0 0)             (0.251518 0 0)             (15.4125 0 0)             (53.9581 0 0)             (66.2305 0 0)
         0.93             (2.92123e-11 0 0)             (0.284161 0 0)             (15.8239 0 0)             (53.9508 0 0)             (66.2903 0 0)
         0.94             (1.1103e-10 0 0)             (0.312426 0 0)             (16.2324 0 0)             (54.0233 0 0)             (66.3462 0 0)
         0.95             (1.1234e-10 0 0)             (0.335196 0 0)             (16.631 0 0)             (54.0392 0 0)             (66.4247 0 0)
         0.96             (1.95474e-11 0 0)             (0.352121 0 0)             (17.0079 0 0)             (54.1278 0 0)             (66.6001 0 0)
         0.97             (-4.93858e-11 0 0)             (0.364816 0 0)             (17.3845 0 0)             (54.1131 0 0)             (66.722 0 0)
         0.98             (9.40586e-11 0 0)             (0.37068 0 0)             (17.7501 0 0)             (54.18 0 0)             (66.7571 0 0)
         0.99             (1.98416e-11 0 0)             (0.419726 0 0)             (18.0921 0 0)             (54.2426 0 0)             (66.8029 0 0)
            1             (-1.02013e-10 0 0)             (0.518758 0 0)             (18.4356 0 0)             (54.297 0 0)             (66.8811 0 0)
         1.01             (-1.27185e-11 0 0)             (0.63827 0 0)             (18.7709 0 0)             (54.2998 0 0)             (66.9685 0 0)
         1.02             (9.89124e-11 0 0)             (0.789643 0 0)             (19.0839 0 0)             (54.3019 0 0)             (66.9418 0 0)
         1.03             (-3.5274e-11 0 0)             (0.963456 0 0)             (19.3937 0 0)             (54.397 0 0)             (67.1739 0 0)
         1.04             (-1.42381e-10 0 0)             (1.15926 0 0)             (19.698 0 0)             (54.4105 0 0)             (67.1584 0 0)
         1.05             (-7.74897e-11 0 0)             (1.3696 0 0)             (19.9832 0 0)             (54.4755 0 0)             (67.2306 0 0)
         1.06             (7.89881e-11 0 0)             (1.58043 0 0)             (20.2615 0 0)             (54.5665 0 0)             (67.0802 0 0)
         1.07             (6.80561e-11 0 0)             (1.78341 0 0)             (20.5382 0 0)             (54.7076 0 0)             (67.3146 0 0)
         1.08             (5.40374e-11 0 0)             (1.97018 0 0)             (20.8061 0 0)             (54.6962 0 0)             (67.2776 0 0)
         1.09             (3.77761e-11 0 0)             (2.13322 0 0)             (21.0654 0 0)             (54.7354 0 0)             (67.4278 0 0)
          1.1             (1.02715e-10 0 0)             (2.26445 0 0)             (21.3114 0 0)             (54.7836 0 0)             (67.3219 0 0)
         1.11             (2.30722e-10 0 0)             (2.37869 0 0)             (21.5492 0 0)             (54.8799 0 0)             (67.443 0 0)
         1.12             (1.41324e-10 0 0)             (2.45737 0 0)             (21.7843 0 0)             (54.8917 0 0)             (67.5167 0 0)
         1.13             (1.08891e-10 0 0)             (2.51119 0 0)             (22.0146 0 0)             (55.0314 0 0)             (67.4692 0 0)
         1.14             (1.75258e-10 0 0)             (2.56248 0 0)             (22.231 0 0)             (55.0383 0 0)             (67.6977 0 0)
         1.15             (6.67792e-11 0 0)             (2.6106 0 0)             (22.4388 0 0)             (55.0531 0 0)             (67.5539 0 0)
         1.16             (3.31482e-11 0 0)             (2.63295 0 0)             (22.6465 0 0)             (55.1324 0 0)             (67.7625 0 0)
         1.17             (1.31893e-10 0 0)             (2.64606 0 0)             (22.8447 0 0)             (55.2334 0 0)             (67.6805 0 0)
         1.18             (4.4589e-11 0 0)             (2.65597 0 0)             (23.0338 0 0)             (55.1508 0 0)             (67.8152 0 0)
         1.19             (1.22771e-10 0 0)             (2.66332 0 0)             (23.2214 0 0)             (55.2868 0 0)             (67.8256 0 0)
          1.2             (2.24249e-10 0 0)             (2.66912 0 0)             (23.4046 0 0)             (55.3162 0 0)             (67.8254 0 0)
         1.21             (1.24196e-10 0 0)             (2.67123 0 0)             (23.5802 0 0)             (55.2989 0 0)             (67.7567 0 0)
         1.22             (1.26105e-10 0 0)             (2.6841 0 0)             (23.7522 0 0)             (55.4408 0 0)             (67.9648 0 0)
         1.23             (1.39364e-10 0 0)             (2.70088 0 0)             (23.9205 0 0)             (55.4449 0 0)             (67.8587 0 0)
         1.24             (3.14727e-11 0 0)             (2.76022 0 0)             (24.0784 0 0)             (55.494 0 0)             (67.8301 0 0)
         1.25             (1.22558e-11 0 0)             (2.84486 0 0)             (24.238 0 0)             (55.5827 0 0)             (68.0775 0 0)
         1.26             (1.10942e-10 0 0)             (2.90657 0 0)             (24.3871 0 0)             (55.5317 0 0)             (68.0806 0 0)
         1.27             (-1.69902e-11 0 0)             (2.94158 0 0)             (24.5344 0 0)             (55.5218 0 0)             (68.0421 0 0)
         1.28             (-1.1076e-10 0 0)             (2.94573 0 0)             (24.6809 0 0)             (55.6826 0 0)             (68.1028 0 0)
         1.29             (2.07692e-11 0 0)             (2.94295 0 0)             (24.8212 0 0)             (55.5844 0 0)             (68.0267 0 0)
          1.3             (1.47559e-10 0 0)             (2.93932 0 0)             (24.9573 0 0)             (55.7332 0 0)             (68.0035 0 0)
         1.31             (7.55067e-11 0 0)             (2.94007 0 0)             (25.0875 0 0)             (55.6551 0 0)             (68.2778 0 0)
         1.32             (4.57905e-11 0 0)             (2.94024 0 0)             (25.2146 0 0)             (55.6754 0 0)             (68.0623 0 0)
         1.33             (1.44074e-10 0 0)             (2.94206 0 0)             (25.3381 0 0)             (55.7064 0 0)             (68.2773 0 0)
         1.34             (5.38172e-11 0 0)             (2.94294 0 0)             (25.4563 0 0)             (55.7612 0 0)             (68.1537 0 0)
         1.35             (3.10853e-11 0 0)             (2.94369 0 0)             (25.5743 0 0)             (55.7892 0 0)             (68.1577 0 0)
         1.36             (2.11049e-10 0 0)             (2.94561 0 0)             (25.6859 0 0)             (55.9024 0 0)             (68.1847 0 0)
         1.37             (2.02331e-10 0 0)             (2.94768 0 0)             (25.7954 0 0)             (55.8827 0 0)             (68.2453 0 0)
         1.38             (1.34207e-10 0 0)             (2.94977 0 0)             (25.903 0 0)             (55.9503 0 0)             (68.2539 0 0)
         1.39             (8.61003e-11 0 0)             (2.95326 0 0)             (26.0083 0 0)             (55.9495 0 0)             (68.3842 0 0)
          1.4             (2.13688e-10 0 0)             (2.95823 0 0)             (26.1094 0 0)             (55.998 0 0)             (68.4789 0 0)
         1.41             (2.85117e-10 0 0)             (2.96391 0 0)             (26.2117 0 0)             (55.9928 0 0)             (68.3386 0 0)
         1.42             (2.08091e-10 0 0)             (2.97086 0 0)             (26.3066 0 0)             (56.0686 0 0)             (68.3132 0 0)
         1.43             (1.84782e-10 0 0)             (2.97836 0 0)             (26.4003 0 0)             (56.0384 0 0)             (68.3928 0 0)
         1.44             (3.92391e-10 0 0)             (2.98537 0 0)             (26.4938 0 0)             (56.1429 0 0)             (68.5183 0 0)
         1.45             (4.70785e-10 0 0)             (2.9933 0 0)             (26.5807 0 0)             (56.0817 0 0)             (68.5206 0 0)
         1.46             (4.97187e-10 0 0)             (3.00104 0 0)             (26.6698 0 0)             (56.1582 0 0)             (68.5075 0 0)
         1.47             (8.04654e-10 0 0)             (3.00867 0 0)             (26.7523 0 0)             (56.1677 0 0)             (68.5658 0 0)
         1.48             (1.05661e-09 0 0)             (3.02245 0 0)             (26.8375 0 0)             (56.1857 0 0)             (68.5716 0 0)
         1.49             (1.24577e-09 0 0)             (3.04768 0 0)             (26.9141 0 0)             (56.211 0 0)             (68.5748 0 0)
          1.5             (1.80389e-09 0 0)             (3.07838 0 0)             (26.9939 0 0)             (56.2311 0 0)             (68.6736 0 0)
         1.51             (2.94888e-09 0 0)             (3.1372 0 0)             (27.0663 0 0)             (56.2634 0 0)             (68.613 0 0)
         1.52             (4.65859e-09 0 0)             (3.18641 0 0)             (27.1412 0 0)             (56.268 0 0)             (68.6757 0 0)
         1.53             (7.72398e-09 0 0)             (3.25808 0 0)             (27.2135 0 0)             (56.3051 0 0)             (68.6088 0 0)
         1.54             (1.48073e-08 0 0)             (3.3354 0 0)             (27.2809 0 0)             (56.2997 0 0)             (68.778 0 0)
         1.55             (2.89863e-08 0 0)             (3.43286 0 0)             (27.3521 0 0)             (56.3751 0 0)             (68.686 0 0)
         1.56             (5.44013e-08 0 0)             (3.53999 0 0)             (27.4193 0 0)             (56.3308 0 0)             (68.77 0 0)
         1.57             (9.73386e-08 0 0)             (3.6648 0 0)             (27.4819 0 0)             (56.4294 0 0)             (68.7777 0 0)
         1.58             (1.67783e-07 0 0)             (3.8125 0 0)             (27.5447 0 0)             (56.3688 0 0)             (68.9573 0 0)
         1.59             (2.82128e-07 0 0)             (3.97471 0 0)             (27.6087 0 0)             (56.4755 0 0)             (68.7995 0 0)
          1.6             (4.65939e-07 0 0)             (4.16093 0 0)             (27.6684 0 0)             (56.4013 0 0)             (69.0415 0 0)
         1.61             (7.58641e-07 0 0)             (4.36493 0 0)             (27.7257 0 0)             (56.5115 0 0)             (68.9263 0 0)
         1.62             (1.22001e-06 0 0)             (4.57593 0 0)             (27.7821 0 0)             (56.4753 0 0)             (69.0052 0 0)
         1.63             (1.93925e-06 0 0)             (4.81489 0 0)             (27.838 0 0)             (56.502 0 0)             (68.8633 0 0)
         1.64             (3.04759e-06 0 0)             (5.06134 0 0)             (27.8935 0 0)             (56.5505 0 0)             (69.0595 0 0)
         1.65             (4.73537e-06 0 0)             (5.31872 0 0)             (27.9457 0 0)             (56.5112 0 0)             (69.088 0 0)
         1.66             (7.27507e-06 0 0)             (5.59089 0 0)             (27.9971 0 0)             (56.6172 0 0)             (69.0045 0 0)
         1.67             (1.10516e-05 0 0)             (5.86724 0 0)             (28.047 0 0)             (56.5431 0 0)             (69.1351 0 0)
         1.68             (1.66013e-05 0 0)             (6.1467 0 0)             (28.0962 0 0)             (56.6361 0 0)             (68.988 0 0)
         1.69             (2.46621e-05 0 0)             (6.43072 0 0)             (28.1442 0 0)             (56.6071 0 0)             (69.2112 0 0)
          1.7             (3.62351e-05 0 0)             (6.7197 0 0)             (28.1911 0 0)             (56.6358 0 0)             (69.0573 0 0)
         1.71             (5.26606e-05 0 0)             (7.01467 0 0)             (28.2356 0 0)             (56.7296 0 0)             (69.2047 0 0)
         1.72             (7.57083e-05 0 0)             (7.31197 0 0)             (28.2789 0 0)             (56.6861 0 0)             (69.1565 0 0)
         1.73             (0.000107684 0 0)             (7.6072 0 0)             (28.3228 0 0)             (56.6371 0 0)             (69.165 0 0)
         1.74             (0.000151549 0 0)             (7.90015 0 0)             (28.3669 0 0)             (56.7206 0 0)             (69.3506 0 0)
         1.75             (0.000211057 0 0)             (8.18954 0 0)             (28.4066 0 0)             (56.7973 0 0)             (69.2526 0 0)
         1.76             (0.000290899 0 0)             (8.47586 0 0)             (28.4462 0 0)             (56.7355 0 0)             (69.1807 0 0)
         1.77             (0.000396849 0 0)             (8.75873 0 0)             (28.4845 0 0)             (56.7435 0 0)             (69.3184 0 0)
         1.78             (0.000535923 0 0)             (9.0374 0 0)             (28.5241 0 0)             (56.8486 0 0)             (69.462 0 0)
         1.79             (0.000716507 0 0)             (9.31257 0 0)             (28.5635 0 0)             (56.7795 0 0)             (69.3261 0 0)
          1.8             (0.000948479 0 0)             (9.58324 0 0)             (28.5993 0 0)             (56.787 0 0)             (69.3193 0 0)
         1.81             (0.00124328 0 0)             (9.84822 0 0)             (28.6348 0 0)             (56.8934 0 0)             (69.5187 0 0)
         1.82             (0.00161391 0 0)             (10.1068 0 0)             (28.6701 0 0)             (56.8225 0 0)             (69.3879 0 0)
         1.83             (0.00207491 0 0)             (10.3596 0 0)             (28.7041 0 0)             (56.8568 0 0)             (69.3849 0 0)
         1.84             (0.0026421 0 0)             (10.6051 0 0)             (28.7372 0 0)             (56.953 0 0)             (69.5768 0 0)
         1.85             (0.00333232 0 0)             (10.8437 0 0)             (28.7693 0 0)             (56.9181 0 0)             (69.4193 0 0)
         1.86             (0.00416288 0 0)             (11.0762 0 0)             (28.802 0 0)             (56.8796 0 0)             (69.4627 0 0)
         1.87             (0.00515087 0 0)             (11.3008 0 0)             (28.8358 0 0)             (56.9918 0 0)             (69.68 0 0)
         1.88             (0.00631218 0 0)             (11.5195 0 0)             (28.8678 0 0)             (56.9721 0 0)             (69.5656 0 0)
         1.89             (0.00766031 0 0)             (11.7325 0 0)             (28.8976 0 0)             (56.9267 0 0)             (69.4964 0 0)
          1.9             (0.0092049 0 0)             (11.9398 0 0)             (28.9272 0 0)             (57.0474 0 0)             (69.7219 0 0)
         1.91             (0.01095 0 0)             (12.1421 0 0)             (28.957 0 0)             (57.0335 0 0)             (69.6737 0 0)
         1.92             (0.0128922 0 0)             (12.3408 0 0)             (28.9868 0 0)             (56.9713 0 0)             (69.5628 0 0)
         1.93             (0.0150188 0 0)             (12.5351 0 0)             (29.0153 0 0)             (57.0647 0 0)             (69.7777 0 0)
         1.94             (0.0173057 0 0)             (12.7254 0 0)             (29.0433 0 0)             (57.1038 0 0)             (69.7183 0 0)
         1.95             (0.0197162 0 0)             (12.9112 0 0)             (29.0711 0 0)             (57.0262 0 0)             (69.5993 0 0)
         1.96             (0.0221997 0 0)             (13.0919 0 0)             (29.0984 0 0)             (57.09 0 0)             (69.8002 0 0)
         1.97             (0.0246917 0 0)             (13.2678 0 0)             (29.1264 0 0)             (57.1799 0 0)             (69.8429 0 0)